ITEM: TIMESTEP
0
ITEM: NUMBER OF ATOMS
384
ITEM: BOX BOUNDS pp pp pp
0.0000000000000000e+00 1.5733000000000001e+01
0.0000000000000000e+00 1.5733000000000001e+01
0.0000000000000000e+00 1.5733000000000001e+01
ITEM: ATOMS id type mol x y z fx fy fz 
113 2 38 0.565127 5.5358 5.57624 -0.616801 -3.9288 -12.8224 
222 2 74 1.44627 7.76337 5.42399 -0.631884 8.71862 -7.55324 
97 1 33 3.89142 5.49415 5.19811 -18.6769 -12.2787 -8.23596 
98 2 33 4.57161 6.16918 5.55371 3.12905 12.0155 4.11214 
99 2 33 2.93406 5.75424 5.49401 10.95 -0.199988 -1.74257 
164 2 55 0.205602 4.00004 3.50729 18.9984 1.37474 43.4325 
235 1 79 6.82916 3.78489 4.66383 -1.83772 -21.5311 17.9829 
236 2 79 6.51394 4.24959 3.82435 -7.58964 8.72397 -18.657 
237 2 79 7.43351 4.45737 5.14219 8.69094 10.4678 -0.312086 
375 2 125 6.97222 6.11663 2.11336 -19.089 -21.189 18.4437 
112 1 38 1.06095 6.24427 6.11415 6.27892 -18.4347 23.473 
114 2 38 1.28609 5.72733 6.98675 0.822793 16.4067 -9.56759 
22 1 8 4.47888 1.38821 1.54281 7.29478 -15.0667 3.43609 
23 2 8 5.43269 1.35483 1.97735 -11.4106 15.6136 -4.68211 
160 1 54 3.22985 5.95628 0.900325 4.70937 4.90685 3.45606 
161 2 54 3.66958 6.74009 1.42946 -12.6884 -4.81691 2.1327 
343 1 115 5.40357 5.36017 2.79459 2.78076 -10.7381 18.8918 
204 2 68 3.66505 3.70387 4.88415 -1.91252 -0.400067 -0.162755 
182 2 61 3.94188 7.67153 3.58855 2.38593 11.7169 -5.42747 
202 1 68 3.51994 2.68319 4.91144 -1.75742 -0.590684 -1.01326 
24 2 8 4.12109 0.430803 1.73153 1.9196 12.7792 -5.21707 
168 2 56 1.78271 6.33055 1.95892 2.04101 3.67186 6.25695 
163 1 55 0.613581 3.88658 4.48027 -19.1688 -9.33697 -45.8244 
344 2 115 4.88353 5.20039 3.68003 4.53671 1.25233 -10.3178 
203 2 68 4.02424 2.3347 5.71991 -2.26674 -2.05493 0.400807 
212 2 71 6.60688 2.65959 5.96299 4.54454 12.0316 -20.0836 
211 1 71 6.35931 2.06068 6.74311 -11.467 -20.4424 19.1288 
345 2 115 4.93638 6.16856 2.38038 -1.19126 3.70563 0.0129513 
166 1 56 1.07111 6.42023 2.70058 -5.77724 -4.81359 6.4508 
256 1 86 5.72183 7.42793 5.80778 -2.32055 -23.4622 11.066 
257 2 86 6.35116 6.65383 6.08164 0.295551 15.9256 -6.85205 
181 1 61 4.19945 7.74919 2.59556 3.53339 -7.74724 -2.20703 
213 2 71 5.6926 1.32382 6.46129 2.52369 3.80967 0.196716 
90 2 30 2.97831 1.02172 4.00435 -6.28726 -13.829 -11.909 
131 2 44 2.6567 4.20527 1.2256 -5.44591 15.3934 -0.911996 
132 2 44 3.31542 2.80431 1.13676 -10.5742 -12.0209 6.52849 
165 2 55 1.26572 3.09328 4.39782 -1.87233 11.1569 9.73007 
373 1 125 7.81021 6.6422 1.95732 1.08313 25.2059 -6.28575 
374 2 125 7.55532 7.10302 1.05406 21.6018 -3.13222 3.93555 
361 1 121 6.79131 1.68304 2.78518 16.2531 -8.61107 -18.8247 
362 2 121 6.64354 2.01669 3.71776 -5.3671 11.3812 18.41 
363 2 121 7.5358 2.28246 2.41101 -4.42341 -0.181847 -2.70989 
42 2 14 1.16611 2.09061 1.80386 4.21563 11.0644 -13.8838 
167 2 56 1.38081 6.98206 3.51476 4.22986 2.70807 -13.6745 
40 1 14 0.349883 1.48481 1.92034 9.15933 -12.2394 -1.52894 
88 1 30 2.43389 0.365972 3.39486 11.5431 27.4477 21.0106 
89 2 30 1.834 1.02666 2.88431 -4.47917 -17.5981 -1.93928 
41 2 14 0.095474 1.0495 1.01653 -5.72048 5.23561 -0.425031 
130 1 44 2.3687 3.22634 1.18076 16.756 -4.26169 2.4731 
120 2 40 5.59763 3.36178 7.50875 -10.7242 -2.99993 0.965466 
53 2 18 0.80175 3.75759 0.161219 10.0262 0.106692 -2.30594 
138 2 46 0.849291 1.49647 7.83773 18.9377 1.36071 24.9712 
28 1 10 2.47805 4.19896 8.30116 3.11124 12.5069 4.07669 
29 2 10 2.23398 4.79586 9.10682 2.92055 0.480483 -8.61453 
162 2 54 3.63936 6.07849 15.6815 -9.63847 -1.78586 -0.110393 
245 2 82 6.99598 0.67153 8.1072 5.9871 -3.67967 5.16172 
200 2 67 5.88433 0.951847 13.7123 6.63317 -2.18926 -18.7799 
378 2 126 1.62724 7.60939 9.52518 -20.2396 29.4627 -5.02696 
156 2 52 5.36161 6.45932 9.88254 12.1984 -1.82324 6.58653 
30 2 10 2.18881 3.228 8.45697 -5.83457 -5.02747 -0.0655573 
17 2 6 7.16922 4.32888 8.33778 -21.6967 2.61501 -13.9476 
255 2 85 0.558155 1.94134 12.2874 -0.0311765 15.3989 -8.73561 
119 2 40 4.13114 4.21024 8.0018 6.54053 -7.5166 -3.64778 
155 2 52 4.94771 6.00187 8.35712 -1.4188 -7.23105 -0.758302 
195 2 65 2.52995 6.75692 11.0603 -1.13555 -6.96626 -5.60586 
224 2 75 5.57556 1.14027 11.6706 6.24611 13.4071 -6.93543 
269 2 90 4.2716 2.77633 11.1337 7.67602 6.12098 0.538612 
310 1 104 7.76032 7.44404 15.2549 5.77635 13.7365 -3.12983 
312 2 104 7.41704 6.8537 14.4939 -8.47854 -2.43316 -8.58991 
133 1 45 0.807258 3.04202 11.025 31.4329 12.3408 2.5184 
134 2 45 1.771 3.24179 11.3917 -20.4281 -2.30991 -9.02239 
135 2 45 0.933125 2.78174 10.035 -0.484489 -6.75263 1.11809 
268 1 90 3.77085 3.52879 11.6459 -29.6267 -0.205817 17.6915 
270 2 90 3.50763 3.08746 12.576 16.6784 13.658 -17.1108 
253 1 85 0.283903 1.64781 13.2234 -5.19374 -10.6846 18.981 
254 2 85 0.345056 2.41509 13.9142 6.95461 4.20819 -10.1519 
54 2 18 0.652678 4.94827 14.7178 3.39154 3.41486 1.48322 
118 1 40 5.16572 4.22875 7.8679 9.58328 12.3401 3.45987 
136 1 46 1.43478 1.73957 8.68801 -23.8944 1.72488 -25.992 
137 2 46 2.17592 1.06222 8.88094 3.3005 -7.54377 -0.984628 
139 1 47 3.50436 2.12474 13.818 -3.10524 -18.3881 -9.69488 
140 2 47 3.41432 1.21906 13.3312 0.58458 5.39519 5.72216 
141 2 47 3.32003 1.98604 14.8026 -1.40928 2.98778 8.79546 
178 1 60 6.59467 5.66172 13.2885 4.7228 -18.2619 20.2996 
179 2 60 6.85165 4.67262 13.5775 -13.04 21.5306 -6.0601 
180 2 60 6.24214 5.63247 12.3293 5.43023 2.41687 -6.4646 
52 1 18 0.476775 3.96254 14.945 -13.6966 -2.38954 -2.59635 
193 1 65 2.92559 6.53869 11.9869 6.99625 2.97679 17.1471 
194 2 65 3.50786 5.69707 11.9741 -4.86768 -5.39909 -11.0045 
223 1 75 5.21618 1.56643 10.7915 9.68868 -33.2648 21.2551 
225 2 75 4.74883 0.731165 10.4093 -6.38031 8.98872 -19.0331 
62 2 21 1.64821 7.18173 13.9937 -3.51593 8.15666 3.72731 
199 1 67 6.38406 0.328177 13.0483 -35.343 24.2579 17.8886 
376 1 126 1.5623 6.6425 9.77742 23.547 -44.9468 -10.4151 
61 1 21 0.754034 6.90384 14.4016 5.69869 -33.6043 -12.5476 
154 1 52 4.77299 6.69649 9.08441 -11.2965 1.37052 -8.23538 
205 1 69 4.1254 6.55714 14.2682 6.1153 3.52036 -0.765862 
206 2 69 5.0016 6.03216 14.0835 -5.46043 8.05401 -5.52525 
63 2 21 0.246689 7.61303 14.8988 -4.51219 16.8686 4.86687 
159 2 53 0.0948741 5.9356 12.2107 -10.793 9.50698 -11.6858 
377 2 126 0.746319 6.22056 10.2596 -9.47513 21.2698 -0.624175 
250 1 84 6.98533 3.15801 14.0253 2.28338 -2.67845 10.0532 
251 2 84 7.09204 2.95411 15.0247 0.828258 3.40258 -7.33182 
227 2 76 6.871 2.02312 10.6495 -5.44343 -10.3639 -1.12063 
226 1 76 7.85405 2.27299 10.4913 -0.994492 39.2299 3.64694 
158 2 53 0.0236646 4.62465 11.3744 -5.54927 -10.9306 -13.5139 
207 2 69 3.60607 6.77426 13.3765 10.9008 -8.84535 8.78705 
201 2 67 7.139 0.0304366 13.634 30.4577 -13.6088 -1.70162 
302 2 101 7.73095 6.59486 10.9081 -26.5496 -10.6231 -6.8741 
301 1 101 6.87515 6.07924 10.6021 25.9638 19.0523 16.3243 
303 2 101 7.1842 5.29388 10.0503 3.77811 -10.4704 -9.13018 
220 1 74 1.69267 8.45744 4.68556 0.164904 4.85167 12.5178 
258 2 86 6.21701 8.29114 5.63664 9.64739 4.50603 -6.62821 
271 1 91 4.4774 15.6967 6.36812 20.578 8.47749 14.3376 
272 2 91 5.31134 15.1073 6.43104 7.33536 -1.55083 1.39951 
221 2 74 1.33828 9.41679 4.90104 -2.49892 -19.7332 -10.2527 
183 2 61 4.84257 8.52167 2.38317 -6.97764 6.23137 5.08403 
149 2 50 5.5554 10.2846 5.08931 6.56173 -2.18235 -10.0583 
150 2 50 6.168 11.3645 4.01019 0.109054 -5.30202 -2.64539 
151 1 51 4.32411 9.94358 6.38962 -5.80249 47.0167 -24.2141 
152 2 51 3.32096 10.1276 6.52919 14.3937 -16.6646 2.9608 
153 2 51 4.76827 9.1537 6.79837 -5.65559 -29.8763 17.8903 
148 1 50 6.29787 10.407 4.36958 -9.75263 9.89021 16.8901 
94 1 32 0.0902601 10.8113 4.61565 3.65732 21.539 19.427 
169 1 57 6.84443 13.9521 6.21948 -2.31739 -15.3678 -3.30564 
170 2 57 6.54219 13.4403 5.36041 2.02236 11.6596 10.2309 
184 1 62 3.13078 12.6238 2.87481 0.309888 2.73305 -28.3315 
185 2 62 3.00847 13.133 3.77034 -3.59049 -4.42538 2.27967 
186 2 62 3.30431 13.3229 2.11032 -0.561729 -10.1459 18.7461 
273 2 91 3.8666 15.1096 5.8116 -19.838 -9.56947 -11.8238 
307 1 103 4.26438 14.4472 1.24889 -1.51586 -11.1553 -5.06109 
308 2 103 4.55694 13.5977 0.718882 2.72606 12.4913 -2.46074 
309 2 103 3.49062 14.8265 0.636582 9.37583 -10.9312 5.18304 
278 2 93 6.21058 13.4761 2.78629 -10.3776 -5.30425 14.8471 
171 2 57 7.13999 13.241 6.91984 -8.49625 4.49058 -6.74805 
292 1 98 7.25383 14.2492 1.6268 -0.348159 1.14095 9.30768 
277 1 93 5.74924 13.1352 3.66165 19.0327 -2.04599 1.88604 
294 2 98 6.38675 14.7242 1.40277 -10.5758 8.15155 -1.89181 
37 1 13 4.63167 10.4377 1.286 9.18385 9.12239 -11.6876 
38 2 13 4.86451 11.1135 0.5392 -4.09962 -9.44488 10.3091 
39 2 13 4.00581 10.852 1.96964 -3.58306 3.02992 2.73522 
279 2 93 4.73278 13.0179 3.56678 2.06567 0.0956982 -8.82047 
293 2 98 7.57957 13.789 0.78278 4.30624 -8.06293 -3.80146 
85 1 29 0.655834 11.2761 1.56116 17.2145 39.9106 5.75227 
87 2 29 1.53787 11.6128 2.02309 -22.5658 -18.1217 -9.07444 
175 1 59 2.86587 14.0155 5.02309 -1.44994 7.11111 -0.571445 
177 2 59 1.98379 13.7655 5.48347 -8.66385 -3.98869 6.2297 
176 2 59 2.61519 14.704 4.28505 1.39148 8.01732 1.90081 
86 2 29 0.111695 12.1589 1.40716 2.50115 -19.9491 2.66495 
246 2 82 7.35951 14.8149 7.80695 1.88934 8.86018 3.71009 
367 1 123 0.360436 13.4324 6.09043 -8.14924 -9.45962 9.37411 
368 2 123 0.192723 12.8779 6.96196 -3.96026 12.5057 -13.5065 
60 2 20 2.44042 9.26493 8.49203 14.514 11.1731 3.80548 
73 1 25 5.20617 12.7765 15.0477 20.208 1.47112 23.5925 
71 2 24 4.7494 9.98808 14.2059 -2.93127 -10.202 2.55313 
208 1 70 7.0655 12.1734 8.40447 14.5238 11.8808 -1.01671 
109 1 37 2.45593 14.7689 15.2244 -42.2264 15.3781 -2.72026 
174 2 58 3.26659 12.7099 8.7429 -4.05587 -4.09936 21.0967 
320 2 107 0.710238 10.1984 15.0325 13.8544 -0.176392 8.02452 
59 2 20 0.934213 10.2073 8.32041 12.0496 5.04103 -6.87966 
93 2 31 0.798279 13.0988 14.8922 4.52838 -11.9282 -0.494447 
58 1 20 1.43495 9.37451 8.60807 -41.0504 -16.903 -0.511158 
72 2 24 4.04638 8.44806 14.5265 2.97791 9.39449 -4.65356 
322 1 108 6.9831 10.1799 13.9939 7.02918 4.2636 15.5463 
324 2 108 7.48235 9.9098 13.1296 -1.70543 -4.00717 -6.57503 
311 2 104 7.449 8.41858 15.1948 -6.04877 -0.424538 -9.22858 
10 1 4 3.68296 15.6045 9.23673 -4.2615 8.88945 -18.4568 
12 2 4 3.78797 15.6108 8.20461 4.24009 -0.412895 12.5668 
323 2 108 7.5698 10.929 14.3993 -13.1207 -2.27843 1.70153 
210 2 70 6.67639 11.2376 8.3087 2.4848 -0.998931 1.9746 
74 2 25 4.87678 12.5808 14.1079 -10.1293 -6.68594 -20.0381 
70 1 24 3.9226 9.38196 14.1001 1.74804 4.6414 -0.421093 
244 1 82 7.51616 15.5893 8.47571 -35.2648 2.62481 -10.9491 
267 2 89 4.6851 9.26355 10.045 -6.46194 14.2498 11.5534 
11 2 4 3.4603 14.6598 9.55997 -1.36124 -10.4192 3.08041 
92 2 31 0.777934 12.561 13.2669 9.89107 -18.0025 -2.16087 
265 1 89 3.85607 9.05925 9.4555 10.1592 -9.89748 -7.85295 
108 2 36 4.22987 12.4788 11.6054 6.33137 -1.71496 -8.72524 
266 2 89 4.05521 8.03519 9.36884 -5.17172 2.82776 -10.6035 
110 2 37 2.96617 15.0555 14.3845 8.95699 -6.74021 -9.95811 
111 2 37 1.44514 14.8445 14.9807 21.523 -2.19696 5.25919 
123 2 41 6.54829 9.37424 11.0923 11.4572 1.51598 10.4808 
91 1 31 0.432998 13.2091 13.9514 -17.8621 24.6306 4.91456 
121 1 41 5.56277 9.47547 11.3161 -5.04644 -5.42735 8.79861 
122 2 41 5.36355 9.28533 12.3122 4.57485 5.40846 -13.182 
107 2 36 3.60231 11.3306 12.5152 10.8238 4.40192 -0.595036 
190 1 64 7.20981 13.9463 10.5782 16.54 4.59201 0.294865 
191 2 64 7.06317 13.1435 9.96964 -8.74014 -5.90941 -3.74238 
192 2 64 7.55323 14.7017 9.9538 -9.37487 -2.15232 6.3731 
196 1 66 2.38205 10.7281 11.0776 -16.9767 -8.85287 -0.207469 
197 2 66 2.77937 10.0206 10.4331 5.72116 2.31286 3.91507 
198 2 66 1.44745 10.3675 11.3378 1.62159 3.20078 0.226511 
214 1 72 3.90471 15.0325 12.9531 -11.39 2.67467 -4.49144 
215 2 72 3.87688 14.0873 12.5807 -8.71192 -9.3548 3.18022 
216 2 72 4.8781 15.272 12.7946 18.4891 8.76667 3.57472 
106 1 36 4.28623 12.1096 12.5494 -16.0149 2.40674 5.29097 
172 1 58 3.10386 12.9029 9.74592 -2.98577 6.12501 -14.4693 
173 2 58 2.5419 12.1557 10.2216 14.77 3.85685 -6.56224 
75 2 25 6.23943 12.7541 15.0008 -7.71905 -6.02943 1.20861 
321 2 107 2.18086 10.1865 14.0332 2.00067 -8.43738 15.3877 
319 1 107 1.16045 10.2718 14.1219 -15.4362 4.53146 -21.6258 
242 2 81 9.05908 5.80976 6.28611 -13.4891 4.31272 -3.20227 
241 1 81 8.4682 5.77858 5.43925 17.0136 -3.09772 16.0115 
80 2 27 12.8683 1.27505 4.75524 4.23553 5.34002 -12.6124 
5 2 2 13.8388 2.9077 3.19312 3.24217 -24.6678 -6.30429 
4 1 2 13.9863 1.8979 3.40677 -20.7943 10.33 12.1915 
6 2 2 14.682 1.39045 2.83496 4.6337 19.0553 -4.93746 
147 2 49 14.2268 7.52464 5.85181 -6.22092 9.11186 -1.89589 
115 1 39 12.8146 4.57276 3.17742 25.3583 2.92005 -11.2444 
116 2 39 11.8422 4.7509 2.89639 -0.992601 -7.31421 14.7213 
291 2 97 10.9447 7.51051 1.93679 -4.48563 -1.76954 -1.54089 
25 1 9 13.8873 3.73982 6.31711 30.7739 10.973 -24.7939 
26 2 9 14.7767 3.56523 5.79813 -14.1619 9.11494 15.0867 
27 2 9 13.326 2.92959 6.05413 -11.0541 -15.5519 4.32009 
117 2 39 12.998 4.42873 4.17323 -16.318 1.04719 0.680724 
328 1 110 10.3418 0.62192 0.136737 13.7822 18.2667 5.18102 
330 2 110 10.2159 0.9597 1.09378 0.355388 1.39597 0.566807 
371 2 124 10.5208 7.37613 3.9314 -13.263 5.69729 -1.29718 
286 1 96 8.69044 4.13347 1.7113 14.723 -24.5325 1.81286 
288 2 96 8.7798 5.11608 1.49357 -11.1891 13.9882 -2.70629 
295 1 99 10.8931 0.708175 3.35405 -18.3921 7.16961 9.18846 
379 1 127 14.1781 6.85894 3.18543 -6.86246 6.75477 -3.6249 
380 2 127 13.6964 5.97884 2.9951 -18.7042 -3.90785 0.805604 
318 2 106 10.356 3.36084 4.82324 -1.38521 5.7208 -10.9846 
287 2 96 9.4515 3.96109 2.38255 -4.52146 -7.59252 4.82145 
331 1 111 10.2373 3.2813 6.44728 2.66186 3.41188 -4.56971 
333 2 111 9.34357 3.40572 6.92781 4.45772 -2.8873 6.53733 
381 2 127 15.1355 6.53214 3.12335 26.2236 9.68409 -3.47847 
316 1 106 10.4011 3.33973 3.77691 -8.97552 -3.50053 16.0368 
317 2 106 10.5726 2.33892 3.60002 5.86139 -1.4439 -8.35516 
370 1 124 10.1844 6.75051 3.19729 20.768 -16.1821 3.16022 
372 2 124 9.21221 6.82842 2.84925 -7.52209 8.5597 2.93319 
243 2 81 9.13838 5.76699 4.66725 -5.04551 0.829759 -7.30743 
81 2 27 11.7886 1.00593 6.02525 9.56269 8.09616 -8.35315 
105 2 35 14.1726 0.850952 6.54136 8.43804 6.70957 -3.80847 
296 2 99 9.97348 0.353323 3.73898 25.1645 -6.65547 -14.8676 
79 1 27 12.6848 1.43476 5.74867 -19.4545 -15.4758 21.7367 
332 2 111 11.0375 3.19437 7.09451 -10.3736 0.809471 1.57869 
103 1 35 15.1754 0.59643 6.56659 -5.5277 -8.73075 5.11592 
48 2 16 12.7528 4.87298 7.32021 3.9897 -4.9713 3.47908 
35 2 12 15.3324 0.0862457 12.7414 -6.40293 -2.03679 1.1915 
16 1 6 8.08455 4.17632 8.71704 14.0962 8.24792 7.82264 
259 1 87 9.67348 6.34586 8.16079 35.7127 -57.8124 2.55068 
260 2 87 9.26054 5.4505 8.55613 -5.32123 34.3182 -12.2516 
238 1 80 9.46047 3.28743 12.762 -5.54154 4.28467 -10.0673 
240 2 80 9.11888 3.03071 11.8177 1.21048 0.585458 9.53115 
329 2 110 10.6868 1.42422 15.2807 -0.675334 -12.654 8.80113 
350 2 117 12.4233 1.52486 9.03599 3.90968 13.7185 4.183 
349 1 117 11.8237 2.2176 8.57278 5.37142 -22.3443 -1.8148 
47 2 16 12.2986 3.92103 8.56995 -4.96674 -9.89596 -0.96028 
364 1 122 12.0241 0.44148 12.0674 18.6307 30.5462 25.0391 
252 2 84 7.89278 3.1232 13.5391 5.0421 -4.32186 1.19389 
157 1 53 15.4325 5.59445 11.3167 9.18182 -0.424241 32.1867 
351 2 117 11.1733 1.57069 8.09266 -8.09986 9.83978 6.54745 
365 2 122 11.9456 1.35104 12.5827 -3.38727 -24.3673 -8.44965 
18 2 6 7.9561 3.46436 9.46102 7.25462 -8.96689 0.0289075 
7 1 3 14.3525 0.96626 9.92339 -9.60929 -3.61426 -7.30023 
8 2 3 15.0739 0.341413 9.56097 1.09621 6.02077 2.17681 
9 2 3 14.6797 1.92635 10.0229 3.72121 -3.22464 1.37377 
239 2 80 9.97241 4.19249 12.7373 -1.68432 -3.07182 -0.588994 
366 2 122 13.0257 0.19008 12.1907 -11.0823 -7.51869 -5.68761 
337 1 113 11.5698 2.43896 14.2088 13.374 1.42968 8.70995 
339 2 113 12.2694 3.12153 14.5693 -13.9295 -3.81399 -7.18341 
340 1 114 13.3659 4.74725 14.9142 17.9823 21.4697 2.99323 
341 2 114 13.5549 5.77901 14.904 -11.7751 -14.9587 -1.90655 
342 2 114 14.2467 4.38508 15.3158 -11.1429 -3.74999 -9.07987 
352 1 118 10.4647 7.74485 14.2496 15.5837 -8.58085 1.04741 
354 2 118 10.6402 6.86013 13.7169 -11.6983 14.6212 8.69947 
338 2 113 10.7619 2.87587 13.73 1.34684 1.27847 0.13969 
228 2 76 8.48239 1.49933 10.3432 8.46433 -27.4228 2.72148 
46 1 16 12.1851 4.86194 8.17918 -2.77128 20.5191 1.99204 
355 1 119 11.203 5.34473 12.9618 0.867894 -6.80985 14.754 
261 2 87 10.6352 5.94916 7.96126 -23.3256 20.5961 6.94745 
356 2 119 11.9584 5.14843 13.6269 -2.44045 -2.05297 9.72446 
13 1 5 14.7449 0.640682 15.393 -2.38976 3.59946 -4.92119 
249 2 83 10.5077 0.456136 11.4221 10.9733 -4.06792 -0.281324 
49 1 17 13.4668 7.63944 14.8964 4.12606 -26.0718 -14.7254 
357 2 119 11.7329 5.52931 12.1081 0.153932 12.2321 -15.4743 
298 1 100 9.93099 0.316955 8.11485 22.1347 3.98889 0.724306 
299 2 100 8.91575 0.333961 8.42736 22.8659 -10.1846 -9.8601 
247 1 83 9.6259 0.174784 10.975 -15.3078 -1.14727 -2.45982 
14 2 5 14.7864 1.39464 14.6911 5.37567 -10.968 6.23498 
31 1 11 12.5727 6.32415 10.9266 -14.4243 -20.4859 -32.9967 
32 2 11 13.5452 6.40247 11.2025 17.1279 -1.6374 0.391792 
33 2 11 12.5103 5.69883 10.0786 3.25246 21.9534 21.0964 
68 2 23 11.5653 7.82273 11.1653 5.17268 -11.6325 14.9033 
145 1 49 13.5116 8.22781 5.63046 14.1239 -14.6978 -7.16112 
146 2 49 13.4285 8.25764 4.59947 3.02828 -3.12635 11.8122 
297 2 99 11.4936 15.7013 2.96058 -9.69993 -4.31909 4.85998 
305 2 102 14.5805 8.36633 1.89297 4.80686 9.36202 -5.66569 
3 2 1 11.8145 10.1261 5.25174 -9.77545 2.05422 5.22422 
304 1 102 14.6974 9.08242 1.15069 -10.794 -17.5425 12.0805 
289 1 97 11.1945 8.20715 1.21421 2.3422 5.3773 -5.97897 
1 1 1 11.9165 10.1895 6.27569 24.5808 -6.20315 -0.394902 
2 2 1 12.7727 9.59689 6.40997 -19.6357 8.14902 -6.40659 
125 2 42 8.04788 15.2218 4.67671 -7.37807 3.53819 20.1634 
126 2 42 8.06592 14.8336 3.13253 9.28443 -1.21576 -6.38239 
96 2 32 15.1949 10.9941 3.82373 -0.85248 -5.07202 -2.51591 
95 2 32 15.7252 11.6567 5.20453 8.10279 -17.8469 -7.8507 
306 2 102 15.4501 9.72601 1.40482 7.34022 8.77525 3.88584 
124 1 42 8.69094 14.9957 3.9409 -6.78705 -3.92446 -12.432 
19 1 7 13.6623 11.683 3.29589 2.94086 -17.3636 -5.8174 
20 2 7 12.9765 11.0468 3.74661 1.4207 4.80368 -15.0191 
21 2 7 13.417 11.9219 2.33289 -3.91254 1.48096 2.10242 
274 1 92 10.0885 12.7062 4.52275 -15.3187 3.86883 -2.20101 
275 2 92 10.4082 12.6237 5.50542 -4.72979 8.84132 -7.77277 
276 2 92 9.44805 13.5204 4.35751 17.8159 -6.24951 7.93776 
325 1 109 8.96448 10.5338 3.50988 -10.464 15.9855 8.11822 
326 2 109 8.01956 10.3375 3.91491 11.9093 -1.18412 -10.3387 
327 2 109 9.26618 11.4703 3.87881 2.88627 -17.9502 2.18454 
55 1 19 11.6179 9.69738 3.51794 -9.99775 -1.21441 -9.49347 
56 2 19 11.8247 9.15071 2.66678 0.706136 1.26675 6.70421 
57 2 19 10.61 9.93772 3.4033 6.20233 1.69755 9.33957 
315 2 105 11.2859 9.16046 7.84099 -12.0059 9.64933 -5.66424 
127 1 43 13.242 13.4352 5.06731 20.2865 22.9546 44.4633 
128 2 43 13.7002 12.8162 4.38277 -13.7854 -7.45649 -13.5028 
129 2 43 12.5142 13.9953 4.66686 -11.9223 1.79348 -17.875 
262 1 88 9.99995 12.087 1.17882 -17.7299 1.7076 13.9331 
263 2 88 10.8279 11.529 0.911011 3.45786 -3.02912 4.42689 
264 2 88 9.54653 11.8372 2.08153 13.7839 -9.70488 -14.5591 
78 2 26 8.74825 12.2119 0.210997 8.80473 -8.49489 7.75217 
230 2 77 14.1891 14.161 0.747433 -21.3755 2.79211 -17.0418 
102 2 34 11.8156 13.5946 6.64767 0.799778 -11.9545 0.993245 
229 1 77 14.8973 13.723 1.3014 18.801 -8.68499 8.89093 
231 2 77 15.2866 14.4869 1.83507 5.30853 1.83689 6.15469 
369 2 123 15.2018 13.7028 5.64807 1.63375 -10.0128 6.95264 
334 1 112 11.5593 14.0788 2.08987 26.7223 22.8855 20.2087 
335 2 112 11.2777 14.7401 1.38471 -4.80776 0.285047 -14.4309 
336 2 112 10.9665 13.2662 2.10756 -13.0685 -14.5309 -7.7499 
290 2 97 10.7741 7.91549 0.316101 5.57422 1.60509 2.24924 
101 2 34 10.7962 14.4926 7.50941 -8.28669 -23.4832 -3.31298 
283 1 95 12.2698 10.6575 0.568124 -32.0422 -2.1152 3.55815 
284 2 95 13.2352 10.5755 0.832671 19.7098 -9.6923 -0.644789 
50 2 17 13.714 7.98051 0.0957287 -3.18092 14.6362 0.225872 
104 2 35 15.2443 15.4067 6.13378 6.92442 8.84677 4.90739 
100 1 34 10.8964 13.5358 7.0953 6.76471 26.5784 -1.85031 
285 2 95 11.7586 9.79021 0.842884 11.5448 4.40102 -8.38385 
281 2 94 11.7752 15.4064 15.0981 4.79159 4.14375 3.47498 
209 2 70 8.10566 12.147 8.5694 -14.0817 -13.5088 -3.83723 
282 2 94 12.2267 14.0338 14.3952 -0.772584 -12.5806 -10.1369 
280 1 94 12.5873 14.7998 14.9521 -2.93411 6.34157 6.5953 
76 1 26 8.03471 12.4731 15.2481 -13.3967 7.09898 -4.28303 
77 2 26 8.45714 13.2644 14.7884 3.05496 8.95766 -14.2225 
313 1 105 10.3816 9.07758 8.3311 10.6356 -32.1424 5.43188 
346 1 116 12.2072 14.8752 9.36332 -2.12598 -30.0222 16.5074 
347 2 116 12.9424 15.5091 9.61815 15.7518 19.2865 3.94055 
348 2 116 12.4129 14.0843 10.0246 -8.82944 10.7018 -19.8079 
353 2 118 9.49311 7.91651 14.5251 -3.7508 -10.968 -5.88604 
300 2 100 10.5125 15.6393 8.87171 -8.73888 3.59598 0.21686 
144 2 48 9.54608 15.6983 14.8069 -3.84923 -1.75223 -14.6794 
15 2 5 14.0777 15.6891 14.992 -2.52841 1.42343 9.14587 
44 2 15 14.4167 10.2011 11.745 8.5422 -1.13741 -1.8733 
43 1 15 15.434 10.06 11.6973 -17.8422 5.24525 -3.16582 
83 2 28 13.9647 11.5966 8.39108 5.1875 13.6552 -7.53937 
82 1 28 14.9614 11.8316 8.44752 -3.70581 -26.7584 10.3404 
84 2 28 15.2525 11.2059 9.21245 3.84087 14.5518 -4.68728 
45 2 15 15.7094 9.97764 12.6751 12.5606 -0.723469 8.48256 
217 1 73 8.33284 9.54693 11.8565 15.1989 36.3076 -19.2405 
218 2 73 8.77508 10.473 11.5828 -19.8753 -18.659 11.6675 
187 1 63 9.35675 12.0929 11.3042 25.3381 0.996487 -24.3454 
189 2 63 8.77852 12.9212 11.1688 -13.6491 3.06315 3.95321 
219 2 73 9.07762 8.91822 11.5946 14.5103 -14.2604 0.984185 
314 2 105 10.0629 8.09186 8.16894 -2.64284 16.6035 4.36415 
34 1 12 14.6688 15.0365 12.6053 -6.29912 15.8615 -14.6547 
36 2 12 14.9255 14.2976 13.2508 9.89205 -12.074 9.88102 
51 2 17 12.5758 7.95658 14.514 -3.18648 6.65809 8.48027 
359 2 120 10.3648 12.6486 12.6393 7.29092 3.07635 -1.51367 
248 2 83 9.03452 15.471 11.6814 -2.04176 2.44053 2.45892 
382 1 128 9.66467 11.6191 8.64404 5.67201 -2.88847 -2.95649 
383 2 128 10.1515 12.2053 7.9391 3.4167 -1.52672 3.52796 
384 2 128 9.97623 10.6179 8.55519 -4.86657 11.664 -4.45584 
142 1 48 9.14111 15.2741 13.9289 -15.8063 -7.11273 7.03509 
143 2 48 9.75106 14.5027 13.6515 8.5741 -2.73622 -3.35795 
358 1 120 10.9508 13.3746 13.0931 -9.38057 12.3179 -5.83989 
360 2 120 11.1938 14.0844 12.3785 4.62851 -9.48181 8.23406 
233 2 78 12.0653 9.93876 12.2075 -4.17335 3.70883 9.27859 
66 2 22 14.0765 13.4042 11.3979 -18.941 -14.8237 -0.165038 
188 2 63 9.93014 12.0586 10.4142 -20.9311 -8.13016 23.3042 
232 1 78 12.5598 10.666 12.7486 5.06312 -5.46849 -16.537 
234 2 78 12.1565 10.8021 13.6757 -0.366846 -1.85467 0.462245 
64 1 22 13.2965 12.8169 11.0287 9.43093 13.34 -3.34499 
65 2 22 13.0461 12.0036 11.6126 3.54143 6.97116 7.05333 
67 1 23 10.9599 8.64263 11.1533 7.62758 -2.71244 -9.38738 
69 2 23 10.9251 8.75627 10.1442 -12.9512 14.467 -8.84082 
ITEM: TIMESTEP
1
ITEM: NUMBER OF ATOMS
384
ITEM: BOX BOUNDS pp pp pp
0.0000000000000000e+00 1.5732997966801365e+01
0.0000000000000000e+00 1.5732997966801365e+01
0.0000000000000000e+00 1.5732997966801365e+01
ITEM: ATOMS id type mol x y z fx fy fz 
113 2 38 0.536733 5.54172 5.60424 -4.01846 -8.30966 -18.095 
222 2 74 1.47324 7.74867 5.42937 -2.06478 14.5737 -9.58618 
97 1 33 3.8906 5.4969 5.19901 -5.11317 -19.5231 -14.043 
98 2 33 4.56636 6.17932 5.53914 6.08564 14.2944 5.50841 
99 2 33 2.95049 5.74513 5.50365 -5.17035 3.79649 3.07803 
164 2 55 0.214522 3.96195 3.51044 12.7916 6.60957 36.1129 
235 1 79 6.82334 3.78048 4.66174 5.39773 -11.2412 23.5147 
236 2 79 6.52246 4.23956 3.80823 -5.41081 7.70299 -14.2244 
237 2 79 7.41973 4.45909 5.172 0.0439581 1.70771 -9.87198 
375 2 125 6.96452 6.1079 2.13313 -3.8492 -11.6536 15.5144 
112 1 38 1.06053 6.24011 6.11417 4.34748 -3.5553 10.5759 
114 2 38 1.2646 5.73375 6.97434 6.73205 6.72128 8.72479 
22 1 8 4.48611 1.39288 1.5367 12.6951 -11.8352 4.38479 
23 2 8 5.43241 1.37395 1.99854 -14.6997 15.4837 -7.36293 
160 1 54 3.23054 5.95526 0.89892 2.54472 4.74584 5.97317 
161 2 54 3.65306 6.7327 1.44734 -10.6599 -3.43235 0.973258 
343 1 115 5.41166 5.35514 2.79573 -4.11728 7.28585 5.68159 
204 2 68 3.67581 3.70516 4.89944 -6.59701 -11.6771 -3.66626 
182 2 61 3.94342 7.68642 3.59032 0.449162 12.1716 5.3392 
202 1 68 3.51221 2.67558 4.90548 10.3218 11.3321 12.1514 
24 2 8 4.14299 0.43199 1.70756 0.222821 8.57744 -3.70493 
168 2 56 1.78541 6.34878 1.93764 -12.0284 3.86725 20.7606 
163 1 55 0.613573 3.88789 4.48106 -13.4441 -17.3734 -42.061 
344 2 115 4.88637 5.19368 3.67039 2.33601 -0.889972 -4.37787 
203 2 68 4.03532 2.34862 5.72472 -9.2663 -2.13842 -9.19531 
212 2 71 6.60037 2.66584 5.96079 4.00905 10.9511 -18.8731 
211 1 71 6.35995 2.06624 6.74494 -4.86028 -13.281 19.1489 
345 2 115 4.93132 6.18023 2.38692 7.99924 -10.4111 6.51831 
166 1 56 1.06557 6.41946 2.69932 8.5159 -5.41181 -8.94578 
256 1 86 5.72282 7.42511 5.80809 -4.29819 -41.2148 15.2258 
257 2 86 6.37207 6.66142 6.08967 -4.71626 20.6298 -9.04679 
181 1 61 4.20286 7.75825 2.60782 11.6227 -3.21867 -17.3583 
213 2 71 5.72386 1.31481 6.45824 -3.28801 -1.12317 -1.32907 
90 2 30 3.00383 1.01194 4.00188 -9.43241 -10.4609 -13.0505 
131 2 44 2.64713 4.20872 1.24066 -4.96577 11.3416 -1.05004 
132 2 44 3.30496 2.79946 1.1084 -5.71233 -12.4777 6.89338 
165 2 55 1.25126 3.0817 4.38434 -1.68253 13.2407 13.6725 
373 1 125 7.81358 6.64572 1.96455 -13.7637 12.9208 -0.350959 
374 2 125 7.55008 7.10658 1.07013 20.4306 -1.17163 -0.0923799 
361 1 121 6.79117 1.6859 2.78731 30.321 1.98267 -24.2936 
362 2 121 6.66153 2.01185 3.72608 -5.72366 11.0943 17.8627 
363 2 121 7.56532 2.28009 2.41659 -18.7717 -10.4561 3.1914 
42 2 14 1.15241 2.11376 1.79706 -0.379698 6.61141 -11.6478 
167 2 56 1.3832 6.96141 3.52318 3.63903 2.75798 -13.1866 
40 1 14 0.34824 1.48326 1.92356 13.8886 -9.91408 -9.55451 
88 1 30 2.43483 0.367455 3.40208 8.64023 25.7539 16.0181 
89 2 30 1.82728 1.00885 2.86283 0.728925 -18.913 3.81548 
41 2 14 0.0915614 1.06007 1.00786 -4.76193 6.66943 5.46408 
130 1 44 2.3667 3.2253 1.1771 10.8607 0.407079 2.62591 
120 2 40 5.62942 3.38677 7.51549 -12.3771 -6.86316 -0.259414 
53 2 18 0.803953 3.77035 0.159919 10.3285 -0.00892035 -1.96912 
138 2 46 0.871294 1.49119 7.82555 17.9155 0.269425 24.9192 
28 1 10 2.47715 4.19815 8.29968 3.02563 14.4152 8.33004 
29 2 10 2.24456 4.78094 9.12242 3.70364 0.0832477 -12.0655 
162 2 54 3.6437 6.08582 15.6832 -8.95877 -1.60553 -0.584351 
245 2 82 6.98506 0.662593 8.10828 1.33479 1.41371 1.60959 
200 2 67 5.92128 0.954318 13.7163 -2.85703 7.19407 -10.8378 
378 2 126 1.62732 7.60999 9.52753 -21.2127 26.9282 -3.23155 
156 2 52 5.3731 6.44989 9.88493 4.1703 2.03148 -3.34044 
30 2 10 2.21537 3.22446 8.47346 -6.24292 -6.57827 -1.42963 
17 2 6 7.18909 4.3277 8.3188 -25.0167 3.85858 -14.4883 
255 2 85 0.571901 1.9528 12.2929 -0.796496 14.8903 -7.50812 
119 2 40 4.13713 4.22467 7.98846 8.74413 -9.0913 -3.82105 
155 2 52 4.94353 6.01906 8.35891 -0.171915 -13.2973 -7.7589 
195 2 65 2.5136 6.75749 11.0735 -1.4878 -7.21007 -10.5011 
224 2 75 5.58381 1.15303 11.6734 3.72002 13.9225 -11.335 
269 2 90 4.25406 2.75599 11.1528 13.1421 2.92343 -6.77697 
310 1 104 7.75861 7.44762 15.2549 10.1232 8.3713 1.16629 
312 2 104 7.40571 6.8516 14.5076 -10.0213 -3.76259 -11.5107 
133 1 45 0.810895 3.04642 11.0292 28.9686 8.53609 -2.5081 
134 2 45 1.77867 3.21652 11.3934 -18.3282 -0.173917 -8.62686 
135 2 45 0.920221 2.7616 10.0397 -0.211866 -4.59459 4.86005 
268 1 90 3.77369 3.52547 11.6435 -33.5393 1.05304 23.4235 
270 2 90 3.51495 3.07209 12.5682 14.754 17.1022 -14.9187 
253 1 85 0.290361 1.64523 13.2229 -4.77226 -14.9244 13.9239 
254 2 85 0.355051 2.3961 13.923 6.93217 8.46005 -6.64087 
54 2 18 0.662549 4.94069 14.703 4.3356 10.0697 -0.295457 
118 1 40 5.17565 4.2403 7.87219 7.85307 16.5913 4.35287 
136 1 46 1.43166 1.73371 8.69137 -28.7688 9.40503 -25.1378 
137 2 46 2.15602 1.06346 8.92534 9.56396 -14.3357 -1.10412 
139 1 47 3.50506 2.12484 13.8204 -1.61715 -16.0245 -10.7057 
140 2 47 3.45588 1.22003 13.3323 -0.484255 2.60123 4.04418 
141 2 47 3.33305 1.96869 14.8026 -1.81768 3.08551 10.7146 
178 1 60 6.59572 5.65546 13.2906 1.08546 -18.6919 7.40537 
179 2 60 6.86953 4.66658 13.5667 -14.3821 22.3919 -5.61048 
180 2 60 6.24602 5.62899 12.317 9.67415 2.95807 5.56812 
52 1 18 0.479339 3.96659 14.9427 -14.7173 -9.21219 -0.897404 
193 1 65 2.92111 6.53095 11.9878 8.4664 3.73866 22.7206 
194 2 65 3.52099 5.70183 11.9759 -5.64728 -5.72073 -12.4067 
223 1 75 5.21794 1.57572 10.7896 3.11945 -51.8264 17.0491 
225 2 75 4.74274 0.72773 10.3939 2.93422 24.4314 -10.5362 
62 2 21 1.6481 7.18079 14.0038 -0.656035 10.2417 2.8023 
199 1 67 6.37557 0.330219 13.042 -26.9605 16.4944 12.5372 
376 1 126 1.55782 6.64046 9.77863 27.7972 -41.5281 -13.5817 
61 1 21 0.749396 6.90571 14.395 9.13026 -45.638 -18.7172 
154 1 52 4.77147 6.70279 9.08473 -4.3668 3.34369 8.35939 
205 1 69 4.12697 6.55724 14.2673 15.6216 0.608969 9.00168 
206 2 69 5.00816 6.03704 14.0808 -7.28832 8.63678 -4.59909 
63 2 21 0.243189 7.58473 14.9095 -10.5225 27.1855 11.8181 
159 2 53 0.0921684 5.94483 12.1989 -9.75946 8.60366 -9.59418 
377 2 126 0.762552 6.21426 10.2855 -13.1887 20.899 0.0853886 
250 1 84 6.9937 3.15561 14.0181 -1.24383 -1.86918 4.14749 
251 2 84 7.09556 3.00694 15.0215 2.20255 1.58333 -0.755916 
227 2 76 6.86497 2.0139 10.6621 7.38044 -5.42507 -3.70463 
226 1 76 7.85837 2.27453 10.4991 -17.0015 36.0008 5.38563 
158 2 53 0.0169774 4.61986 11.3612 -5.69473 -7.76704 -12.3192 
207 2 69 3.62746 6.78106 13.3809 3.27716 -6.36844 -1.26015 
201 2 67 7.14973 0.0586189 13.6156 31.4744 -15.3561 -3.85413 
302 2 101 7.73069 6.60168 10.9059 -33.8291 -15.2842 -9.32693 
301 1 101 6.86968 6.07572 10.6037 31.7521 26.9067 21.1034 
303 2 101 7.18412 5.29568 10.0538 4.8856 -14.2015 -11.549 
220 1 74 1.69502 8.45804 4.69058 1.30362 3.00593 11.6205 
258 2 86 6.19163 8.28903 5.6503 16.6827 17.394 -8.98233 
271 1 91 4.48042 15.7023 6.36287 16.8633 12.9974 14.3066 