384
Atoms. Timestep: 0
O 11.9165 10.1895 6.27569
H 12.7727 9.59689 6.40997
H 11.8145 10.1261 5.25174
O 13.9863 1.8979 3.40677
H 13.8388 2.9077 3.19312
H 14.682 1.39045 2.83496
O 14.3525 0.96626 9.92339
H 15.0739 0.341413 9.56097
H 14.6797 1.92635 10.0229
O 3.68296 15.6045 9.23673
H 3.4603 14.6598 9.55997
H 3.78797 15.6108 8.20461
O 14.7449 0.640682 15.393
H 14.7864 1.39464 14.6911
H 14.0777 15.6891 14.992
O 8.08455 4.17632 8.71704
H 7.16922 4.32888 8.33778
H 7.9561 3.46436 9.46102
O 13.6623 11.683 3.29589
H 12.9765 11.0468 3.74661
H 13.417 11.9219 2.33289
O 4.47888 1.38821 1.54281
H 5.43269 1.35483 1.97735
H 4.12109 0.430803 1.73153
O 13.8873 3.73982 6.31711
H 14.7767 3.56523 5.79813
H 13.326 2.92959 6.05413
O 2.47805 4.19896 8.30116
H 2.23398 4.79586 9.10682
H 2.18881 3.228 8.45697
O 12.5727 6.32415 10.9266
H 13.5452 6.40247 11.2025
H 12.5103 5.69883 10.0786
O 14.6688 15.0365 12.6053
H 15.3324 0.0862457 12.7414
H 14.9255 14.2976 13.2508
O 4.63167 10.4377 1.286
H 4.86451 11.1135 0.5392
H 4.00581 10.852 1.96964
O 0.349883 1.48481 1.92034
H 0.095474 1.0495 1.01653
H 1.16611 2.09061 1.80386
O 15.434 10.06 11.6973
H 14.4167 10.2011 11.745
H 15.7094 9.97764 12.6751
O 12.1851 4.86194 8.17918
H 12.2986 3.92103 8.56995
H 12.7528 4.87298 7.32021
O 13.4668 7.63944 14.8964
H 13.714 7.98051 0.0957287
H 12.5758 7.95658 14.514
O 0.476775 3.96254 14.945
H 0.80175 3.75759 0.161219
H 0.652678 4.94827 14.7178
O 11.6179 9.69738 3.51794
H 11.8247 9.15071 2.66678
H 10.61 9.93772 3.4033
O 1.43495 9.37451 8.60807
H 0.934213 10.2073 8.32041
H 2.44042 9.26493 8.49203
O 0.754034 6.90384 14.4016
H 1.64821 7.18173 13.9937
H 0.246689 7.61303 14.8988
O 13.2965 12.8169 11.0287
H 13.0461 12.0036 11.6126
H 14.0765 13.4042 11.3979
O 10.9599 8.64263 11.1533
H 11.5653 7.82273 11.1653
H 10.9251 8.75627 10.1442
O 3.9226 9.38196 14.1001
H 4.7494 9.98808 14.2059
H 4.04638 8.44806 14.5265
O 5.20617 12.7765 15.0477
H 4.87678 12.5808 14.1079
H 6.23943 12.7541 15.0008
O 8.03471 12.4731 15.2481
H 8.45714 13.2644 14.7884
H 8.74825 12.2119 0.210997
O 12.6848 1.43476 5.74867
H 12.8683 1.27505 4.75524
H 11.7886 1.00593 6.02525
O 14.9614 11.8316 8.44752
H 13.9647 11.5966 8.39108
H 15.2525 11.2059 9.21245
O 0.655834 11.2761 1.56116
H 0.111695 12.1589 1.40716
H 1.53787 11.6128 2.02309
O 2.43389 0.365972 3.39486
H 1.834 1.02666 2.88431
H 2.97831 1.02172 4.00435
O 0.432998 13.2091 13.9514
H 0.777934 12.561 13.2669
H 0.798279 13.0988 14.8922
O 0.0902601 10.8113 4.61565
H 15.7252 11.6567 5.20453
H 15.1949 10.9941 3.82373
O 3.89142 5.49415 5.19811
H 4.57161 6.16918 5.55371
H 2.93406 5.75424 5.49401
O 10.8964 13.5358 7.0953
H 10.7962 14.4926 7.50941
H 11.8156 13.5946 6.64767
O 15.1754 0.59643 6.56659
H 15.2443 15.4067 6.13378
H 14.1726 0.850952 6.54136
O 4.28623 12.1096 12.5494
H 3.60231 11.3306 12.5152
H 4.22987 12.4788 11.6054
O 2.45593 14.7689 15.2244
H 2.96617 15.0555 14.3845
H 1.44514 14.8445 14.9807
O 1.06095 6.24427 6.11415
H 0.565127 5.5358 5.57624
H 1.28609 5.72733 6.98675
O 12.8146 4.57276 3.17742
H 11.8422 4.7509 2.89639
H 12.998 4.42873 4.17323
O 5.16572 4.22875 7.8679
H 4.13114 4.21024 8.0018
H 5.59763 3.36178 7.50875
O 5.56277 9.47547 11.3161
H 5.36355 9.28533 12.3122
H 6.54829 9.37424 11.0923
O 8.69094 14.9957 3.9409
H 8.04788 15.2218 4.67671
H 8.06592 14.8336 3.13253
O 13.242 13.4352 5.06731
H 13.7002 12.8162 4.38277
H 12.5142 13.9953 4.66686
O 2.3687 3.22634 1.18076
H 2.6567 4.20527 1.2256
H 3.31542 2.80431 1.13676
O 0.807258 3.04202 11.025
H 1.771 3.24179 11.3917
H 0.933125 2.78174 10.035
O 1.43478 1.73957 8.68801
H 2.17592 1.06222 8.88094
H 0.849291 1.49647 7.83773
O 3.50436 2.12474 13.818
H 3.41432 1.21906 13.3312
H 3.32003 1.98604 14.8026
O 9.14111 15.2741 13.9289
H 9.75106 14.5027 13.6515
H 9.54608 15.6983 14.8069
O 13.5116 8.22781 5.63046
H 13.4285 8.25764 4.59947
H 14.2268 7.52464 5.85181
O 6.29787 10.407 4.36958
H 5.5554 10.2846 5.08931
H 6.168 11.3645 4.01019
O 4.32411 9.94358 6.38962
H 3.32096 10.1276 6.52919
H 4.76827 9.1537 6.79837
O 4.77299 6.69649 9.08441
H 4.94771 6.00187 8.35712
H 5.36161 6.45932 9.88254
O 15.4325 5.59445 11.3167
H 0.0236646 4.62465 11.3744
H 0.0948741 5.9356 12.2107
O 3.22985 5.95628 0.900325
H 3.66958 6.74009 1.42946
H 3.63936 6.07849 15.6815
O 0.613581 3.88658 4.48027
H 0.205602 4.00004 3.50729
H 1.26572 3.09328 4.39782
O 1.07111 6.42023 2.70058
H 1.38081 6.98206 3.51476
H 1.78271 6.33055 1.95892
O 6.84443 13.9521 6.21948
H 6.54219 13.4403 5.36041
H 7.13999 13.241 6.91984
O 3.10386 12.9029 9.74592
H 2.5419 12.1557 10.2216
H 3.26659 12.7099 8.7429
O 2.86587 14.0155 5.02309
H 2.61519 14.704 4.28505
H 1.98379 13.7655 5.48347
O 6.59467 5.66172 13.2885
H 6.85165 4.67262 13.5775
H 6.24214 5.63247 12.3293
O 4.19945 7.74919 2.59556
H 3.94188 7.67153 3.58855
H 4.84257 8.52167 2.38317
O 3.13078 12.6238 2.87481
H 3.00847 13.133 3.77034
H 3.30431 13.3229 2.11032
O 9.35675 12.0929 11.3042
H 9.93014 12.0586 10.4142
H 8.77852 12.9212 11.1688
O 7.20981 13.9463 10.5782
H 7.06317 13.1435 9.96964
H 7.55323 14.7017 9.9538
O 2.92559 6.53869 11.9869
H 3.50786 5.69707 11.9741
H 2.52995 6.75692 11.0603
O 2.38205 10.7281 11.0776
H 2.77937 10.0206 10.4331
H 1.44745 10.3675 11.3378
O 6.38406 0.328177 13.0483
H 5.88433 0.951847 13.7123
H 7.139 0.0304366 13.634
O 3.51994 2.68319 4.91144
H 4.02424 2.3347 5.71991
H 3.66505 3.70387 4.88415
O 4.1254 6.55714 14.2682
H 5.0016 6.03216 14.0835
H 3.60607 6.77426 13.3765
O 7.0655 12.1734 8.40447
H 8.10566 12.147 8.5694
H 6.67639 11.2376 8.3087
O 6.35931 2.06068 6.74311
H 6.60688 2.65959 5.96299
H 5.6926 1.32382 6.46129
O 3.90471 15.0325 12.9531
H 3.87688 14.0873 12.5807
H 4.8781 15.272 12.7946
O 8.33284 9.54693 11.8565
H 8.77508 10.473 11.5828
H 9.07762 8.91822 11.5946
O 1.69267 8.45744 4.68556
H 1.33828 9.41679 4.90104
H 1.44627 7.76337 5.42399
O 5.21618 1.56643 10.7915
H 5.57556 1.14027 11.6706
H 4.74883 0.731165 10.4093
O 7.85405 2.27299 10.4913
H 6.871 2.02312 10.6495
H 8.48239 1.49933 10.3432
O 14.8973 13.723 1.3014
H 14.1891 14.161 0.747433
H 15.2866 14.4869 1.83507
O 12.5598 10.666 12.7486
H 12.0653 9.93876 12.2075
H 12.1565 10.8021 13.6757
O 6.82916 3.78489 4.66383
H 6.51394 4.24959 3.82435
H 7.43351 4.45737 5.14219
O 9.46047 3.28743 12.762
H 9.97241 4.19249 12.7373
H 9.11888 3.03071 11.8177
O 8.4682 5.77858 5.43925
H 9.05908 5.80976 6.28611
H 9.13838 5.76699 4.66725
O 7.51616 15.5893 8.47571
H 6.99598 0.67153 8.1072
H 7.35951 14.8149 7.80695
O 9.6259 0.174784 10.975
H 9.03452 15.471 11.6814
H 10.5077 0.456136 11.4221
O 6.98533 3.15801 14.0253
H 7.09204 2.95411 15.0247
H 7.89278 3.1232 13.5391
O 0.283903 1.64781 13.2234
H 0.345056 2.41509 13.9142
H 0.558155 1.94134 12.2874
O 5.72183 7.42793 5.80778
H 6.35116 6.65383 6.08164
H 6.21701 8.29114 5.63664
O 9.67348 6.34586 8.16079
H 9.26054 5.4505 8.55613
H 10.6352 5.94916 7.96126
O 9.99995 12.087 1.17882
H 10.8279 11.529 0.911011
H 9.54653 11.8372 2.08153
O 3.85607 9.05925 9.4555
H 4.05521 8.03519 9.36884
H 4.6851 9.26355 10.045
O 3.77085 3.52879 11.6459
H 4.2716 2.77633 11.1337
H 3.50763 3.08746 12.576
O 4.4774 15.6967 6.36812
H 5.31134 15.1073 6.43104
H 3.8666 15.1096 5.8116
O 10.0885 12.7062 4.52275
H 10.4082 12.6237 5.50542
H 9.44805 13.5204 4.35751
O 5.74924 13.1352 3.66165
H 6.21058 13.4761 2.78629
H 4.73278 13.0179 3.56678
O 12.5873 14.7998 14.9521
H 11.7752 15.4064 15.0981
H 12.2267 14.0338 14.3952
O 12.2698 10.6575 0.568124
H 13.2352 10.5755 0.832671
H 11.7586 9.79021 0.842884
O 8.69044 4.13347 1.7113
H 9.4515 3.96109 2.38255
H 8.7798 5.11608 1.49357
O 11.1945 8.20715 1.21421
H 10.7741 7.91549 0.316101
H 10.9447 7.51051 1.93679
O 7.25383 14.2492 1.6268
H 7.57957 13.789 0.78278
H 6.38675 14.7242 1.40277
O 10.8931 0.708175 3.35405
H 9.97348 0.353323 3.73898
H 11.4936 15.7013 2.96058
O 9.93099 0.316955 8.11485
H 8.91575 0.333961 8.42736
H 10.5125 15.6393 8.87171
O 6.87515 6.07924 10.6021
H 7.73095 6.59486 10.9081
H 7.1842 5.29388 10.0503
O 14.6974 9.08242 1.15069
H 14.5805 8.36633 1.89297
H 15.4501 9.72601 1.40482
O 4.26438 14.4472 1.24889
H 4.55694 13.5977 0.718882
H 3.49062 14.8265 0.636582
O 7.76032 7.44404 15.2549
H 7.449 8.41858 15.1948
H 7.41704 6.8537 14.4939
O 10.3816 9.07758 8.3311
H 10.0629 8.09186 8.16894
H 11.2859 9.16046 7.84099
O 10.4011 3.33973 3.77691
H 10.5726 2.33892 3.60002
H 10.356 3.36084 4.82324
O 1.16045 10.2718 14.1219
H 0.710238 10.1984 15.0325
H 2.18086 10.1865 14.0332
O 6.9831 10.1799 13.9939
H 7.5698 10.929 14.3993
H 7.48235 9.9098 13.1296
O 8.96448 10.5338 3.50988
H 8.01956 10.3375 3.91491
H 9.26618 11.4703 3.87881
O 10.3418 0.62192 0.136737
H 10.6868 1.42422 15.2807
H 10.2159 0.9597 1.09378
O 10.2373 3.2813 6.44728
H 11.0375 3.19437 7.09451
H 9.34357 3.40572 6.92781
O 11.5593 14.0788 2.08987
H 11.2777 14.7401 1.38471
H 10.9665 13.2662 2.10756
O 11.5698 2.43896 14.2088
H 10.7619 2.87587 13.73
H 12.2694 3.12153 14.5693
O 13.3659 4.74725 14.9142
H 13.5549 5.77901 14.904
H 14.2467 4.38508 15.3158
O 5.40357 5.36017 2.79459
H 4.88353 5.20039 3.68003
H 4.93638 6.16856 2.38038
O 12.2072 14.8752 9.36332
H 12.9424 15.5091 9.61815
H 12.4129 14.0843 10.0246
O 11.8237 2.2176 8.57278
H 12.4233 1.52486 9.03599
H 11.1733 1.57069 8.09266
O 10.4647 7.74485 14.2496
H 9.49311 7.91651 14.5251
H 10.6402 6.86013 13.7169
O 11.203 5.34473 12.9618
H 11.9584 5.14843 13.6269
H 11.7329 5.52931 12.1081
O 10.9508 13.3746 13.0931
H 10.3648 12.6486 12.6393
H 11.1938 14.0844 12.3785
O 6.79131 1.68304 2.78518
H 6.64354 2.01669 3.71776
H 7.5358 2.28246 2.41101
O 12.0241 0.44148 12.0674
H 11.9456 1.35104 12.5827
H 13.0257 0.19008 12.1907
O 0.360436 13.4324 6.09043
H 0.192723 12.8779 6.96196
H 15.2018 13.7028 5.64807
O 10.1844 6.75051 3.19729
H 10.5208 7.37613 3.9314
H 9.21221 6.82842 2.84925
O 7.81021 6.6422 1.95732
H 7.55532 7.10302 1.05406
H 6.97222 6.11663 2.11336
O 1.5623 6.6425 9.77742
H 0.746319 6.22056 10.2596
H 1.62724 7.60939 9.52518
O 14.1781 6.85894 3.18543
H 13.6964 5.97884 2.9951
H 15.1355 6.53214 3.12335
O 9.66467 11.6191 8.64404
H 10.1515 12.2053 7.9391
H 9.97623 10.6179 8.55519
384
Atoms. Timestep: 1
O 11.9194 10.1933 6.2674
H 12.7539 9.59258 6.3978
H 11.8099 10.133 5.25142
O 13.9808 1.90477 3.40816
H 13.8367 2.89592 3.17398
H 14.655 1.38297 2.83313
O 14.3476 0.962808 9.92434
H 15.0685 0.337445 9.56849
H 14.6673 1.92969 10.0429
O 3.67729 15.6061 9.23357
H 3.47134 14.6628 9.54303
H 3.80204 15.6032 8.21645
O 14.7506 0.637411 15.3952
H 14.779 1.39277 14.7096
H 14.0803 15.67 15.003
O 8.09186 4.17118 8.71624
H 7.18909 4.3277 8.3188
H 7.95734 3.43376 9.42627
O 13.6679 11.6868 3.30144
H 12.977 11.0366 3.72609
H 13.398 11.9379 2.33533
O 4.48611 1.39288 1.5367
H 5.43241 1.37395 1.99854
H 4.14299 0.43199 1.70756
O 13.8846 3.74455 6.31873
H 14.7912 3.57007 5.82827
H 13.3122 2.92855 6.06655
O 2.47715 4.19815 8.29968
H 2.24456 4.78094 9.12242
H 2.21537 3.22446 8.47346
O 12.5696 6.31308 10.9264
H 13.5425 6.41836 11.2105
H 12.5075 5.69297 10.0939
O 14.6627 15.0343 12.5987
H 15.318 0.0820876 12.7348
H 14.9198 14.3046 13.2629
O 4.62871 10.443 1.2792
H 4.88466 11.1331 0.54659
H 3.99911 10.8435 1.96633
O 0.34824 1.48326 1.92356
H 0.0915614 1.06007 1.00786
H 1.15241 2.11376 1.79706
O 15.4296 10.0643 11.696
H 14.4243 10.2215 11.7222
H 15.728 9.97582 12.6637
O 12.1834 4.85972 8.18097
H 12.3119 3.91526 8.56899
H 12.7719 4.91746 7.32111
O 13.4738 7.62517 14.8906
H 13.7113 7.98138 0.0824279
H 12.5737 7.96096 14.4947
O 0.479339 3.96659 14.9427
H 0.803953 3.77035 0.159919
H 0.662549 4.94069 14.703
O 11.6176 9.70043 3.52482
H 11.8008 9.15918 2.66687
H 10.624 9.93935 3.38236
O 1.43429 9.37979 8.61702
H 0.929288 10.1863 8.29013
H 2.46007 9.25938 8.52582
O 0.749396 6.90571 14.395
H 1.6481 7.18079 14.0038
H 0.243189 7.58473 14.9095
O 13.2931 12.8155 11.0253
H 13.0604 11.9848 11.6139
H 14.0965 13.3872 11.3965
O 10.9646 8.63779 11.1583
H 11.538 7.79549 11.1679
H 10.9086 8.74804 10.1586
O 3.92409 9.38856 14.0972
H 4.75064 10.0058 14.1765
H 4.04172 8.44908 14.5264
O 5.21338 12.7785 15.054
H 4.88973 12.5733 14.1154
H 6.24118 12.7571 14.9992
O 8.04378 12.4785 15.2532
H 8.44914 13.2737 14.7828
H 8.73977 12.2001 0.224535
O 12.6821 1.4346 5.74617
H 12.8582 1.26251 4.75
H 11.8037 0.990159 6.04443
O 14.9518 11.8365 8.45257
H 13.9582 11.6042 8.3678
H 15.283 11.2043 9.2078
O 0.651462 11.2725 1.56042
H 0.125779 12.1447 1.37884
H 1.50557 11.645 2.04241
O 2.43483 0.367455 3.40208
H 1.82728 1.00885 2.86283
H 3.00383 1.01194 4.00188
O 0.430432 13.2164 13.9477
H 0.795995 12.5561 13.2668
H 0.798295 13.108 14.8917
O 0.0888797 10.8141 4.61699
H 15.7391 11.6593 5.17876
H 15.2066 10.9907 3.80646
O 3.8906 5.4969 5.19901
H 4.56636 6.17932 5.53914
H 2.95049 5.74513 5.50365
O 10.9027 13.5298 7.09288
H 10.7837 14.4883 7.48929
H 11.8188 13.6206 6.64604
O 15.1742 0.592726 6.5624
H 15.2653 15.4111 6.13013
H 14.1649 0.861555 6.5272
O 4.29087 12.106 12.5564
H 3.60063 11.3343 12.5116
H 4.23447 12.4942 11.6301
O 2.45577 14.7728 15.2314
H 2.9577 15.0671 14.378
H 1.46106 14.8342 14.9516
O 1.06053 6.24011 6.11417
H 0.536733 5.54172 5.60424
H 1.2646 5.73375 6.97434
O 12.8182 4.5715 3.18558
H 11.8435 4.7762 2.89549
H 12.9996 4.43212 4.18794
O 5.17565 4.2403 7.87219
H 4.13713 4.22467 7.98846
H 5.62942 3.38677 7.51549
O 5.56269 9.47601 11.3121
H 5.37301 9.30033 12.3042
H 6.54839 9.34642 11.1018
O 8.68626 15.0003 3.94457
H 8.05076 15.2282 4.67286
H 8.05941 14.8359 3.14186
O 13.2408 13.4381 5.06592
H 13.6983 12.8224 4.38656
H 12.522 14.0065 4.65388
O 2.3667 3.2253 1.1771
H 2.64713 4.20872 1.24066
H 3.30496 2.79946 1.1084
O 0.810895 3.04642 11.0292
H 1.77867 3.21652 11.3934
H 0.920221 2.7616 10.0397
O 1.43166 1.73371 8.69137
H 2.15602 1.06346 8.92534
H 0.871294 1.49119 7.82555
O 3.50506 2.12484 13.8204
H 3.45588 1.22003 13.3323
H 3.33305 1.96869 14.8026
O 9.13607 15.2668 13.9236
H 9.77029 14.5158 13.649
H 9.52885 15.6777 14.8034
O 13.5156 8.22819 5.62373
H 13.4305 8.27289 4.59332
H 14.2181 7.50704 5.85774
O 6.30051 10.4107 4.36887
H 5.55341 10.272 5.0849
H 6.17143 11.3607 4.00256
O 4.32436 9.94071 6.38652
H 3.33133 10.1529 6.51194
H 4.78466 9.16751 6.81391
O 4.77147 6.70279 9.08473
H 4.94353 6.01906 8.35891
H 5.3731 6.44989 9.88493
O 15.4303 5.59479 11.3102
H 0.0169774 4.61986 11.3612
H 0.0921684 5.94483 12.1989
O 3.23054 5.95526 0.89892
H 3.65306 6.7327 1.44734
H 3.6437 6.08582 15.6832
O 0.613573 3.88789 4.48106
H 0.214522 3.96195 3.51044
H 1.25126 3.0817 4.38434
O 1.06557 6.41946 2.69932
H 1.3832 6.96141 3.52318
H 1.78541 6.34878 1.93764
O 6.84973 13.9506 6.21594
H 6.52009 13.4349 5.36799
H 7.13115 13.2379 6.92441
O 3.10145 12.9027 9.73925
H 2.52818 12.1628 10.2341
H 3.24332 12.7116 8.74201
O 2.86944 14.0185 5.02098
H 2.61546 14.7263 4.28836
H 1.97041 13.7417 5.45278
O 6.59572 5.65546 13.2906
H 6.86953 4.66658 13.5667
H 6.24602 5.62899 12.317
O 4.20286 7.75825 2.60782
H 3.94342 7.68642 3.59032
H 4.85009 8.53381 2.37264
O 3.13411 12.6198 2.87585
H 3.01535 13.1381 3.77189
H 3.31828 13.3202 2.12701
O 9.36235 12.0954 11.3124
H 9.93474 12.0306 10.4152
H 8.76171 12.9192 11.1817
O 7.20922 13.9475 10.5756
H 7.05287 13.1251 9.98759
H 7.58937 14.6833 9.94833
O 2.92111 6.53095 11.9878
H 3.52099 5.70183 11.9759
H 2.5136 6.75749 11.0735
O 2.37775 10.7233 11.0751
H 2.80035 10.023 10.4159
H 1.43904 10.3667 11.3576
O 6.37557 0.330219 13.042
H 5.92128 0.954318 13.7163
H 7.14973 0.0586189 13.6156
O 3.51221 2.67558 4.90548
H 4.03532 2.34862 5.72472
H 3.67581 3.70516 4.89944
O 4.12697 6.55724 14.2673
H 5.00816 6.03704 14.0808
H 3.62746 6.78106 13.3809
O 7.06419 12.1712 8.40085
H 8.09573 12.1417 8.58661
H 6.67136 11.23 8.32204
O 6.35995 2.06624 6.74494
H 6.60037 2.66584 5.96079
H 5.72386 1.31481 6.45824
O 3.89502 15.0388 12.9483
H 3.87857 14.0887 12.5639
H 4.88074 15.2853 12.8146
O 8.32549 9.54918 11.8534
H 8.76132 10.4584 11.5827
H 9.07437 8.90897 11.5975
O 1.69502 8.45804 4.69058
H 1.33574 9.42375 4.88057
H 1.47324 7.74867 5.42937
O 5.21794 1.57572 10.7896
H 5.58381 1.15303 11.6734
H 4.74274 0.72773 10.3939
O 7.85837 2.27453 10.4991
H 6.86497 2.0139 10.6621
H 8.48065 1.49964 10.3494
O 14.9068 13.7227 1.29905
H 14.1792 14.1647 0.748033
H 15.2729 14.4947 1.82081
O 12.5667 10.6658 12.7536
H 12.0728 9.92123 12.2197
H 12.1518 10.7901 13.6755
O 6.82334 3.78048 4.66174
H 6.52246 4.23956 3.80823
H 7.41973 4.45909 5.172
O 9.45666 3.28112 12.7625
H 9.96097 4.19175 12.7561
H 9.10732 3.04748 11.8241
O 8.46956 5.77484 5.43883
H 9.08764 5.81436 6.28202
H 9.1463 5.76069 4.66748
O 7.51274 15.5912 8.46818
H 6.98506 0.662593 8.10828
H 7.37995 14.8166 7.81517
O 9.616 0.178716 10.9751
H 9.06135 15.4922 11.6933
H 10.5125 0.480925 11.3973
O 6.9937 3.15561 14.0181
H 7.09556 3.00694 15.0215
H 7.89857 3.11723 13.5306
O 0.290361 1.64523 13.2229
H 0.355051 2.3961 13.923
H 0.571901 1.9528 12.2929
O 5.72282 7.42511 5.80809
H 6.37207 6.66142 6.08967
H 6.19163 8.28903 5.6503
O 9.67698 6.34281 8.15768
H 9.28645 5.42551 8.52229
H 10.6401 5.96617 7.98926
O 9.99654 12.0878 1.17669
H 10.8364 11.5591 0.890291
H 9.56975 11.8053 2.07982
O 3.85726 9.05788 9.45646
H 4.04824 8.02532 9.34259
H 4.66772 9.28759 10.0777
O 3.77369 3.52547 11.6435
H 4.25406 2.75599 11.1528
H 3.51495 3.07209 12.5682
O 4.48042 15.7023 6.36287
H 5.30902 15.1154 6.38633
H 3.85278 15.1176 5.8279
O 10.0847 12.7087 4.52193
H 10.4166 12.6306 5.49971
H 9.46513 13.5387 4.34315
O 5.74883 13.1339 3.66147
H 6.22377 13.4971 2.79941
H 4.73446 13.0092 3.59558
O 12.5932 14.8084 14.9473
H 11.7617 15.3897 15.0818
H 12.2131 14.0339 14.4035
O 12.2698 10.6493 0.561236
H 13.2375 10.5818 0.853966
H 11.7502 9.78908 0.844133
O 8.69141 4.12857 1.71121
H 9.44657 3.93333 2.36491
H 8.78256 5.12487 1.50207
O 11.1918 8.20077 1.21921
H 10.8102 7.94137 0.305735
H 10.9627 7.46299 1.91429
O 7.25046 14.2507 1.63403
H 7.58127 13.7853 0.788781
H 6.39954 14.7436 1.40694
O 10.8913 0.709788 3.35504
H 9.9835 0.339051 3.75857
H 11.4892 15.6828 2.97594
O 9.92821 0.313517 8.1193
H 8.91007 0.36141 8.41516
H 10.5014 15.6426 8.87314
O 6.86968 6.07572 10.6037
H 7.73069 6.60168 10.9059
H 7.18412 5.29568 10.0538
O 14.6944 9.08272 1.1482
H 14.618 8.37313 1.90038
H 15.4544 9.72156 1.4084
O 4.26905 14.4415 1.25344
H 4.57838 13.5891 0.745186
H 3.49349 14.8497 0.656154
O 7.75861 7.44762 15.2549
H 7.41678 8.4062 15.2273
H 7.40571 6.8516 14.5076
O 10.381 9.08091 8.32983
H 10.0684 8.09716 8.17677
H 11.2758 9.17905 7.85435
O 10.3924 3.35148 3.77344
H 10.5841 2.3446 3.60937
H 10.3605 3.34486 4.81579
O 1.16087 10.2654 14.115
H 0.727479 10.2309 15.0374
H 2.18696 10.2001 14.066
O 6.98927 10.1726 13.9829
H 7.55995 10.905 14.4097
H 7.47492 9.91592 13.1137
O 8.96157 10.537 3.51702
H 8.02785 10.3547 3.94447
H 9.26245 11.4725 3.89242
O 10.3463 0.621007 0.139422
H 10.6726 1.43639 15.3057
H 10.1976 0.98785 1.09751
O 10.2331 3.28055 6.44144
H 11.0202 3.23633 7.0991
H 9.32852 3.37994 6.92021
O 11.5619 14.0783 2.08992
H 11.2986 14.7432 1.38562
H 10.96 13.2674 2.07919
O 11.5638 2.44305 14.2135
H 10.7595 2.89081 13.7284
H 12.2315 3.16843 14.5817
O 13.37 4.74918 14.9168
H 13.5473 5.78162 14.908
H 14.2462 4.4022 15.3451
O 5.41166 5.35514 2.79573
H 4.88637 5.19368 3.67039
H 4.93132 6.18023 2.38692
O 12.2046 14.8644 9.36406
H 12.9449 15.4983 9.61414
H 12.3991 14.0659 10.0268
O 11.8247 2.2179 8.57443
H 12.444 1.537 9.03
H 11.1616 1.58386 8.06734
O 10.4725 7.74254 14.2574
H 9.49251 7.92294 14.5311
H 10.6312 6.8592 13.7147
O 11.201 5.34112 12.9662
H 11.9763 5.13603 13.6358
H 11.7233 5.53671 12.1065
O 10.9506 13.3719 13.0958
H 10.3615 12.6467 12.6287
H 11.1867 14.0863 12.3717
O 6.79117 1.6859 2.78731
H 6.66153 2.01185 3.72608
H 7.56532 2.28009 2.41659
O 12.0295 0.443211 12.0696
H 11.926 1.34735 12.6019
H 13.0216 0.191176 12.1883
O 0.356823 13.4299 6.09107
H 0.209859 12.8553 6.94582
H 15.1884 13.6744 5.66354
O 10.1804 6.74855 3.19101
H 10.4991 7.37738 3.94091
H 9.22229 6.85071 2.82592
O 7.81358 6.64572 1.96455
H 7.55008 7.10658 1.07013
H 6.96452 6.1079 2.13313
O 1.55782 6.64046 9.77863
H 0.762552 6.21426 10.2855
H 1.62732 7.60999 9.52753
O 14.1694 6.86004 3.18393
H 13.6944 5.98993 2.98947
H 15.1309 6.52446 3.1273
O 9.65532 11.6157 8.6445
H 10.153 12.2031 7.94132
H 9.97654 10.6308 8.53797
384
Atoms. Timestep: 2
O 11.9226 10.1972 6.25926
H 12.732 9.58863 6.38374
H 11.8012 10.1406 5.25001
O 13.9748 1.91158 3.40998
H 13.8348 2.87999 3.15139
H 14.6315 1.3823 2.82825
O 14.3425 0.95946 9.92513
H 15.0645 0.335647 9.5765
H 14.656 1.92895 10.063
O 3.67155 15.608 9.2302
H 3.48088 14.658 9.52909
H 3.81826 15.5963 8.22795
O 14.7561 0.633854 15.3974
H 14.7734 1.38948 14.7272
H 14.0839 15.6548 15.0185
O 8.09967 4.16629 8.71553
H 7.1985 4.32814 8.29375
H 7.96113 3.39858 9.39386
O 13.6733 11.6902 3.30642
H 12.979 11.0287 3.70055
H 13.3799 11.9538 2.34366
O 4.49368 1.39724 1.5307
H 5.42598 1.39954 2.01665
H 4.16498 0.436765 1.68203
O 13.8826 3.74943 6.31971
H 14.7987 3.57806 5.86406
H 13.2964 2.92364 6.08087
O 2.47632 4.19771 8.29841
H 2.25668 4.76605 9.13297
H 2.23931 3.21817 8.48935
O 12.5661 6.30178 10.9256
H 13.545 6.43293 11.2174
H 12.5064 5.69214 10.1125
O 14.6564 15.0324 12.5918
H 15.3027 0.079415 12.7289
H 14.9175 14.3081 13.2772
O 4.62606 10.4485 1.27201
H 4.90213 11.1476 0.559736
H 3.99061 10.8369 1.96424
O 0.346961 1.48145 1.92653
H 0.0856564 1.07342 1.00146
H 1.13854 2.13968 1.78539
O 15.425 10.0688 11.6945
H 14.4311 10.2418 11.7002
H 15.7508 9.97357 12.6576
O 12.1818 4.85804 8.18256
H 12.3233 3.90673 8.56641
H 12.7891 4.95839 7.32868
O 13.4804 7.61037 14.8842
H 13.7084 7.9888 0.0708787
H 12.5777 7.96514 14.4817
O 0.481518 3.97041 14.9403
H 0.810477 3.7831 0.157796
H 0.674232 4.93733 14.6881
O 11.6173 9.70339 3.53137
H 11.7787 9.16701 2.66956
H 10.6361 9.94324 3.3665
O 1.43311 9.38437 8.62601
H 0.9284 10.1701 8.25565
H 2.47815 9.25981 8.56139
O 0.744996 6.90637 14.3878
H 1.6477 7.18413 14.015
H 0.235286 7.56781 14.9251
O 13.2901 12.8143 11.0222
H 13.0766 11.9732 11.6147
H 14.1049 13.3624 11.393
O 10.9695 8.63283 11.1633
H 11.5134 7.76365 11.1764
H 10.8872 8.74642 10.1656
O 3.92567 9.39522 14.0943
H 4.74957 10.0176 14.1487
H 4.03878 8.45649 14.5235
O 5.22104 12.7805 15.0608
H 4.89779 12.5632 14.1143
H 6.24188 12.7578 14.9984
O 8.05231 12.484 15.258
H 8.44328 13.2862 14.7722
H 8.73637 12.1859 0.24126
O 12.6791 1.43404 5.74415
H 12.8496 1.2527 4.74106
H 11.8217 0.977454 6.06026
O 14.9424 11.8407 8.45796
H 13.9535 11.6163 8.34276
H 15.312 11.2106 9.19849
O 0.647702 11.2698 1.55989
H 0.136851 12.1269 1.35056
H 1.46559 11.6685 2.05815
O 2.43601 0.369612 3.40972
H 1.82085 0.983129 2.84294
H 3.02541 0.997791 3.99396
O 0.427619 13.2241 13.9441
H 0.815741 12.5476 13.2692
H 0.799238 13.1128 14.8898
O 0.0876114 10.8172 4.61843
H 15.7553 11.6603 5.15383
H 15.2189 10.9851 3.79046
O 3.88965 5.49914 5.19953
H 4.56365 6.19545 5.52688
H 2.96475 5.7376 5.51457
O 10.9091 13.5245 7.09036
H 10.7673 14.4752 7.46911
H 11.8228 13.6407 6.64465
O 15.1726 0.589069 6.55842
H 15.2887 15.4168 6.12733
H 14.1649 0.872963 6.51132
O 4.29512 12.1025 12.5638
H 3.60323 11.3393 12.5077
H 4.24159 12.5102 11.6474
O 2.45478 14.7772 15.238
H 2.95225 15.0744 14.3715
H 1.48231 14.823 14.9254
O 1.06023 6.23585 6.11447
H 0.506658 5.54416 5.62467
H 1.24593 5.74298 6.96559
O 12.8222 4.57034 3.19349
H 11.8483 4.79757 2.90221
H 12.994 4.43625 4.20065
O 5.18578 4.25229 7.87659
H 4.14679 4.23529 7.97352
H 5.65602 3.40888 7.52212
O 5.56257 9.47645 11.3081
H 5.38299 9.3169 12.2941
H 6.55295 9.31945 11.1148
O 8.68165 15.0047 3.94777
H 8.04776 15.2369 4.68079
H 8.05614 14.8374 3.14744
O 13.2401 13.4418 5.06577
H 13.6918 12.8236 4.38323
H 12.5259 14.0176 4.63418
O 2.36498 3.22428 1.17351
H 2.63548 4.21692 1.25529
H 3.29211 2.78938 1.08293
O 0.815289 3.05104 11.0333
H 1.77868 3.19118 11.3915
H 0.907227 2.73953 10.0463
O 1.42778 1.7281 8.69407
H 2.14013 1.05869 8.96928
H 0.900792 1.48603 7.8238
O 3.50572 2.12453 13.8225
H 3.49724 1.22209 13.335
H 3.3453 1.95262 14.8072
O 9.13056 15.2594 13.9184
H 9.79291 14.5269 13.6444
H 9.51105 15.6583 14.7964
O 13.52 8.2281 5.61691
H 13.4343 8.28625 4.59213
H 14.205 7.49539 5.86145
O 6.30286 10.4145 4.36869
H 5.555 10.2595 5.07533
H 6.17433 11.3566 3.99343
O 4.32473 9.93906 6.38266
H 3.34465 10.1706 6.49738
H 4.79717 9.16953 6.83757
O 4.76984 6.70917 9.08527
H 4.93927 6.03069 8.35745
H 5.38633 6.44132 9.88591
O 15.4284 5.59506 11.3045
H 0.00790761 4.61181 11.3428
H 0.0853794 5.95767 12.1832
O 3.23129 5.95437 0.897671
H 3.63208 6.72386 1.46562
H 3.64428 6.09248 15.6848
O 0.613214 3.88874 4.48075
H 0.228795 3.92661 3.52871
H 1.23609 3.07566 4.37657
O 1.06024 6.41855 2.69783
H 1.38712 6.94191 3.52608
H 1.78306 6.36864 1.92504
O 6.85492 13.9487 6.21234
H 6.49959 13.4347 5.38009
H 7.11868 13.2374 6.92547
O 3.09878 12.9026 9.7326
H 2.52299 12.1742 10.2412
H 3.2188 12.7107 8.74614
O 2.87265 14.0217 5.01877
H 2.61758 14.7493 4.29512
H 1.95705 13.7175 5.42358
O 6.59679 5.6487 13.2929
H 6.88138 4.6699 13.5536
H 6.25394 5.62676 12.307
O 4.20657 7.76722 2.61964
H 3.94515 7.7064 3.59433
H 4.852 8.54555 2.36584
O 3.13738 12.6157 2.87647
H 3.02087 13.1401 3.77288
H 3.3326 13.3155 2.14815
O 9.36854 12.0981 11.3198
H 9.92859 12.0008 10.4284
H 8.74209 12.9158 11.196
O 7.20907 13.9487 10.573
H 7.03937 13.1067 10.0048
H 7.62104 14.6639 9.94557
O 2.91686 6.5233 11.9893
H 3.53175 5.70419 11.9725
H 2.49664 6.75504 11.0823
O 2.37305 10.7181 11.0725
H 2.81983 10.0298 10.4043
H 1.43469 10.3674 11.3754
O 6.36636 0.332693 13.0359
H 5.95702 0.959799 13.7158
H 7.17362 0.0803762 13.5956
O 3.50475 2.66826 4.89985
H 4.04253 2.36164 5.72568
H 3.6838 3.70156 4.91319
O 4.12894 6.55735 14.2667
H 5.01166 6.04552 14.0762
H 3.65021 6.78519 13.3847
O 7.06305 12.1691 8.39719
H 8.0822 12.1309 8.60203
H 6.66814 11.2241 8.33629
O 6.36047 2.07144 6.74726
H 6.59554 2.67667 5.95068
H 5.75375 1.30532 6.45463
O 3.88528 15.0451 12.9433
H 3.8767 14.0901 12.5498
H 4.88721 15.3012 12.8365
O 8.31854 9.55177 11.8498
H 8.74267 10.4428 11.5856
H 9.07434 8.89651 11.602
O 1.6974 8.45871 4.6959
H 1.33206 9.42088 4.8572
H 1.49934 7.74006 5.43075
O 5.21977 1.58365 10.7881
H 5.59361 1.17161 11.6715
H 4.73787 0.734516 10.374
O 7.86225 2.27702 10.507
H 6.86203 2.0024 10.673
H 8.48345 1.48771 10.3566
O 14.9165 13.7223 1.29658
H 14.1647 14.1662 0.744612
H 15.2636 14.5059 1.81149
O 12.5736 10.6651 12.7581
H 12.0808 9.90811 12.2368
H 12.1473 10.778 13.6762
O 6.81766 3.77578 4.66027
H 6.52871 4.23276 3.78615
H 7.40596 4.46152 5.19769
O 9.45279 3.27501 12.763
H 9.94876 4.18938 12.7742
H 9.09515 3.06347 11.8309
O 8.4717 5.77103 5.43906
H 9.10642 5.82047 6.27246
H 9.15031 5.75458 4.66508
O 7.50857 15.5933 8.4607
H 6.9747 0.654247 8.11003
H 7.39988 14.8179 7.82096
O 9.60624 0.182922 10.9749
H 9.08236 15.5107 11.7124
H 10.5187 0.502704 11.3709
O 7.00203 3.15316 14.011
H 7.09999 3.06042 15.018
H 7.90733 3.10934 13.5226
O 0.296694 1.64225 13.2229
H 0.367947 2.38064 13.929
H 0.585313 1.97049 12.2952
O 5.72369 7.42121 5.8088
H 6.39101 6.67764 6.0939
H 6.17323 8.2942 5.6602
O 9.6812 6.33832 8.15468
H 9.30869 5.41514 8.48435
H 10.6399 5.99037 8.01862
O 9.99278 12.0886 1.17493
H 10.8464 11.5873 0.871113
H 9.59769 11.7696 2.07307
O 3.85877 9.0562 9.45727
H 4.04021 8.02048 9.31364
H 4.6457 9.31476 10.1128
O 3.77565 3.52218 11.6418
H 4.24202 2.73688 11.169
H 3.52846 3.06388 12.5542
O 4.48387 15.7081 6.35799
H 5.31249 15.1211 6.34266
H 3.82964 15.1211 5.83881
O 10.0805 12.7113 4.52097
H 10.4229 12.6413 5.49145
H 9.48965 13.5534 4.33277
O 5.74911 13.1325 3.66144
H 6.23087 13.5153 2.81858
H 4.73564 13.0009 3.6191
O 12.5988 14.8169 14.9426
H 11.7507 15.3763 15.0677
H 12.2015 14.0303 14.4087
O 12.2692 10.6411 0.554511
H 13.2443 10.5838 0.873965
H 11.7472 9.7899 0.841824
O 8.69252 4.12336 1.71085
H 9.44372 3.90233 2.35286
H 8.78052 5.13466 1.51102
O 11.1894 8.19459 1.22437
H 10.8463 7.96593 0.292479
H 10.9789 7.41667 1.88984
O 7.24725 14.2522 1.64144
H 7.58394 13.7793 0.794876
H 6.4063 14.7673 1.40967
O 10.8891 0.711308 3.35625
H 10.0043 0.323592 3.77131
H 11.4793 15.6658 2.99398
O 9.9259 0.310352 8.12346
H 8.91405 0.383566 8.39991
H 10.4887 15.6456 8.87793
O 6.86503 6.07291 10.6059
H 7.71628 6.60209 10.8997
H 7.18608 5.29153 10.0525
O 14.6912 9.08265 1.14615
H 14.6558 8.38283 1.90485
H 15.4603 9.7204 1.41188
O 4.27364 14.4358 1.258
H 4.59997 13.585 0.768506
H 3.50171 14.8657 0.677606
O 7.75717 7.45141 15.2549
H 7.38115 8.39629 15.2553
H 7.39019 6.84792 14.5164
O 10.3804 9.08351 8.32893
H 10.0725 8.10749 8.18556
H 11.266 9.20158 7.86236
O 10.3836 3.36279 3.77028
H 10.5973 2.35296 3.61447
H 10.3639 3.33302 4.80586
O 1.16102 10.2591 14.1077
H 0.749225 10.2635 15.0444
H 2.19296 10.2104 14.1034
O 6.99525 10.1653 13.9723
H 7.54828 10.8837 14.4221
H 7.46882 9.92004 13.0933
O 8.95846 10.5406 3.52439
H 8.03948 10.3703 3.96962
H 9.26043 11.4669 3.90625
O 10.351 0.620649 0.142751
H 10.6598 1.44465 15.331
H 10.1802 1.01297 1.09621
O 10.2287 3.27991 6.43551
H 11.0011 3.27838 7.10556
H 9.31759 3.35293 6.9136
O 11.5651 14.0783 2.09055
H 11.3172 14.7479 1.37944
H 10.9489 13.2639 2.04769
O 11.5583 2.44765 14.2185
H 10.7588 2.90356 13.7276
H 12.1865 3.20869 14.5899
O 13.3745 4.75163 14.9195
H 13.5351 5.77884 14.9109
H 14.2404 4.41768 15.37
O 5.41964 5.35031 2.79701
H 4.89018 5.1866 3.65892
H 4.9296 6.18754 2.39618
O 12.202 14.8528 9.3653
H 12.9532 15.4946 9.61172
H 12.382 14.0538 10.0197
O 11.8256 2.21749 8.57584
H 12.4654 1.55394 9.02534
H 11.1511 1.60356 8.04845
O 10.4804 7.74001 14.2653
H 9.49391 7.92437 14.5339
H 10.6178 6.86486 13.7167
O 11.1993 5.33725 12.9713
H 11.9871 5.12462 13.643
H 11.7134 5.54874 12.0995
O 10.9501 13.3695 13.0981
H 10.3628 12.6478 12.619
H 11.1811 14.082 12.371
O 6.79181 1.6888 2.7888
H 6.67712 2.01165 3.74187
H 7.58699 2.27333 2.4235
O 12.0351 0.445919 12.0724
H 11.9063 1.33132 12.6164
H 13.017 0.188621 12.1844
O 0.353136 13.4272 6.09184
H 0.224867 12.8369 6.92644
H 15.174 13.6429 5.68112
O 10.1771 6.74631 3.18507
H 10.4713 7.37876 3.947
H 9.22689 6.87602 2.80301
O 7.81659 6.64957 1.97177
H 7.55338 7.10965 1.08616
H 6.95521 6.09429 2.15939
O 1.55406 6.63733 9.77948
H 0.773266 6.2167 10.3115
H 1.61851 7.62185 9.52852
O 14.1608 6.8615 3.18236
H 13.6822 5.99537 2.98344
H 15.1347 6.52181 3.13008
O 9.64616 11.6126 8.64478
H 10.1545 12.1998 7.94652
H 9.97557 10.6439 8.5193
384
Atoms. Timestep: 3
O 11.9257 10.2014 6.25141
H 12.7129 9.58108 6.36871
H 11.7882 10.1489 5.24501