LAMMPS data file via build_data

         384 atoms
           2 atom types
         256 bonds
           1 bond types
         128 angles
           1 angle types

   0.0000000000000000        14.8544      xlo xhi
   0.0000000000000000        14.8544      ylo yhi
   0.0000000000000000        14.8544      zlo zhi

 Masses

1 16.0
2  1.0

 Atoms

    1     1     1  -0.820000      1.23786479      0.77119812      1.23786479
    2     1     2   0.410000      1.93786479      1.47119812      1.23786479
    3     1     2   0.410000      0.53786479      1.47119812      1.23786479
    4     2     1  -0.820000      1.23786479      0.77119812      3.71359436
    5     2     2   0.410000      1.93786479      1.47119812      3.71359436
    6     2     2   0.410000      0.53786479      1.47119812      3.71359436
    7     3     1  -0.820000      1.23786479      0.77119812      6.18932394
    8     3     2   0.410000      1.93786479      1.47119812      6.18932394
    9     3     2   0.410000      0.53786479      1.47119812      6.18932394
   10     4     1  -0.820000      1.23786479      0.77119812      8.66505351
   11     4     2   0.410000      1.93786479      1.47119812      8.66505351
   12     4     2   0.410000      0.53786479      1.47119812      8.66505351
   13     5     1  -0.820000      1.23786479      0.77119812     11.14078309
   14     5     2   0.410000      1.93786479      1.47119812     11.14078309
   15     5     2   0.410000      0.53786479      1.47119812     11.14078309
   16     6     1  -0.820000      1.23786479      0.77119812     13.61651266
   17     6     2   0.410000      1.93786479      1.47119812     13.61651266
   18     6     2   0.410000      0.53786479      1.47119812     13.61651266
   19     7     1  -0.820000      1.23786479      3.24692770      1.23786479
   20     7     2   0.410000      1.93786479      3.94692770      1.23786479
   21     7     2   0.410000      0.53786479      3.94692770      1.23786479
   22     8     1  -0.820000      1.23786479      3.24692770      3.71359436
   23     8     2   0.410000      1.93786479      3.94692770      3.71359436
   24     8     2   0.410000      0.53786479      3.94692770      3.71359436
   25     9     1  -0.820000      1.23786479      3.24692770      6.18932394
   26     9     2   0.410000      1.93786479      3.94692770      6.18932394
   27     9     2   0.410000      0.53786479      3.94692770      6.18932394
   28    10     1  -0.820000      1.23786479      3.24692770      8.66505351
   29    10     2   0.410000      1.93786479      3.94692770      8.66505351
   30    10     2   0.410000      0.53786479      3.94692770      8.66505351
   31    11     1  -0.820000      1.23786479      3.24692770     11.14078309
   32    11     2   0.410000      1.93786479      3.94692770     11.14078309
   33    11     2   0.410000      0.53786479      3.94692770     11.14078309
   34    12     1  -0.820000      1.23786479      3.24692770     13.61651266
   35    12     2   0.410000      1.93786479      3.94692770     13.61651266
   36    12     2   0.410000      0.53786479      3.94692770     13.61651266
   37    13     1  -0.820000      1.23786479      5.72265727      1.23786479
   38    13     2   0.410000      1.93786479      6.42265727      1.23786479
   39    13     2   0.410000      0.53786479      6.42265727      1.23786479
   40    14     1  -0.820000      1.23786479      5.72265727      3.71359436
   41    14     2   0.410000      1.93786479      6.42265727      3.71359436
   42    14     2   0.410000      0.53786479      6.42265727      3.71359436
   43    15     1  -0.820000      1.23786479      5.72265727      6.18932394
   44    15     2   0.410000      1.93786479      6.42265727      6.18932394
   45    15     2   0.410000      0.53786479      6.42265727      6.18932394
   46    16     1  -0.820000      1.23786479      5.72265727      8.66505351
   47    16     2   0.410000      1.93786479      6.42265727      8.66505351
   48    16     2   0.410000      0.53786479      6.42265727      8.66505351
   49    17     1  -0.820000      1.23786479      5.72265727     11.14078309
   50    17     2   0.410000      1.93786479      6.42265727     11.14078309
   51    17     2   0.410000      0.53786479      6.42265727     11.14078309
   52    18     1  -0.820000      1.23786479      5.72265727     13.61651266
   53    18     2   0.410000      1.93786479      6.42265727     13.61651266
   54    18     2   0.410000      0.53786479      6.42265727     13.61651266
   55    19     1  -0.820000      1.23786479      8.19838684      1.23786479
   56    19     2   0.410000      1.93786479      8.89838684      1.23786479
   57    19     2   0.410000      0.53786479      8.89838684      1.23786479
   58    20     1  -0.820000      1.23786479      8.19838684      3.71359436
   59    20     2   0.410000      1.93786479      8.89838684      3.71359436
   60    20     2   0.410000      0.53786479      8.89838684      3.71359436
   61    21     1  -0.820000      1.23786479      8.19838684      6.18932394
   62    21     2   0.410000      1.93786479      8.89838684      6.18932394
   63    21     2   0.410000      0.53786479      8.89838684      6.18932394
   64    22     1  -0.820000      1.23786479      8.19838684      8.66505351
   65    22     2   0.410000      1.93786479      8.89838684      8.66505351
   66    22     2   0.410000      0.53786479      8.89838684      8.66505351
   67    23     1  -0.820000      1.23786479      8.19838684     11.14078309
   68    23     2   0.410000      1.93786479      8.89838684     11.14078309
   69    23     2   0.410000      0.53786479      8.89838684     11.14078309
   70    24     1  -0.820000      1.23786479      8.19838684     13.61651266
   71    24     2   0.410000      1.93786479      8.89838684     13.61651266
   72    24     2   0.410000      0.53786479      8.89838684     13.61651266
   73    25     1  -0.820000      1.23786479     10.67411642      1.23786479
   74    25     2   0.410000      1.93786479     11.37411642      1.23786479
   75    25     2   0.410000      0.53786479     11.37411642      1.23786479
   76    26     1  -0.820000      1.23786479     10.67411642      3.71359436
   77    26     2   0.410000      1.93786479     11.37411642      3.71359436
   78    26     2   0.410000      0.53786479     11.37411642      3.71359436
   79    27     1  -0.820000      1.23786479     10.67411642      6.18932394
   80    27     2   0.410000      1.93786479     11.37411642      6.18932394
   81    27     2   0.410000      0.53786479     11.37411642      6.18932394
   82    28     1  -0.820000      1.23786479     10.67411642      8.66505351
   83    28     2   0.410000      1.93786479     11.37411642      8.66505351
   84    28     2   0.410000      0.53786479     11.37411642      8.66505351
   85    29     1  -0.820000      1.23786479     10.67411642     11.14078309
   86    29     2   0.410000      1.93786479     11.37411642     11.14078309
   87    29     2   0.410000      0.53786479     11.37411642     11.14078309
   88    30     1  -0.820000      1.23786479     10.67411642     13.61651266
   89    30     2   0.410000      1.93786479     11.37411642     13.61651266
   90    30     2   0.410000      0.53786479     11.37411642     13.61651266
   91    31     1  -0.820000      1.23786479     13.14984599      1.23786479
   92    31     2   0.410000      1.93786479     13.84984599      1.23786479
   93    31     2   0.410000      0.53786479     13.84984599      1.23786479
   94    32     1  -0.820000      1.23786479     13.14984599      3.71359436
   95    32     2   0.410000      1.93786479     13.84984599      3.71359436
   96    32     2   0.410000      0.53786479     13.84984599      3.71359436
   97    33     1  -0.820000      1.23786479     13.14984599      6.18932394
   98    33     2   0.410000      1.93786479     13.84984599      6.18932394
   99    33     2   0.410000      0.53786479     13.84984599      6.18932394
  100    34     1  -0.820000      1.23786479     13.14984599      8.66505351
  101    34     2   0.410000      1.93786479     13.84984599      8.66505351
  102    34     2   0.410000      0.53786479     13.84984599      8.66505351
  103    35     1  -0.820000      1.23786479     13.14984599     11.14078309
  104    35     2   0.410000      1.93786479     13.84984599     11.14078309
  105    35     2   0.410000      0.53786479     13.84984599     11.14078309
  106    36     1  -0.820000      1.23786479     13.14984599     13.61651266
  107    36     2   0.410000      1.93786479     13.84984599     13.61651266
  108    36     2   0.410000      0.53786479     13.84984599     13.61651266
  109    37     1  -0.820000      3.71359436      0.77119812      1.23786479
  110    37     2   0.410000      4.41359436      1.47119812      1.23786479
  111    37     2   0.410000      3.01359436      1.47119812      1.23786479
  112    38     1  -0.820000      3.71359436      0.77119812      3.71359436
  113    38     2   0.410000      4.41359436      1.47119812      3.71359436
  114    38     2   0.410000      3.01359436      1.47119812      3.71359436
  115    39     1  -0.820000      3.71359436      0.77119812      6.18932394
  116    39     2   0.410000      4.41359436      1.47119812      6.18932394
  117    39     2   0.410000      3.01359436      1.47119812      6.18932394
  118    40     1  -0.820000      3.71359436      0.77119812      8.66505351
  119    40     2   0.410000      4.41359436      1.47119812      8.66505351
  120    40     2   0.410000      3.01359436      1.47119812      8.66505351
  121    41     1  -0.820000      3.71359436      0.77119812     11.14078309
  122    41     2   0.410000      4.41359436      1.47119812     11.14078309
  123    41     2   0.410000      3.01359436      1.47119812     11.14078309
  124    42     1  -0.820000      3.71359436      0.77119812     13.61651266
  125    42     2   0.410000      4.41359436      1.47119812     13.61651266
  126    42     2   0.410000      3.01359436      1.47119812     13.61651266
  127    43     1  -0.820000      3.71359436      3.24692770      1.23786479
  128    43     2   0.410000      4.41359436      3.94692770      1.23786479
  129    43     2   0.410000      3.01359436      3.94692770      1.23786479
  130    44     1  -0.820000      3.71359436      3.24692770      3.71359436
  131    44     2   0.410000      4.41359436      3.94692770      3.71359436
  132    44     2   0.410000      3.01359436      3.94692770      3.71359436
  133    45     1  -0.820000      3.71359436      3.24692770      6.18932394
  134    45     2   0.410000      4.41359436      3.94692770      6.18932394
  135    45     2   0.410000      3.01359436      3.94692770      6.18932394
  136    46     1  -0.820000      3.71359436      3.24692770      8.66505351
  137    46     2   0.410000      4.41359436      3.94692770      8.66505351
  138    46     2   0.410000      3.01359436      3.94692770      8.66505351
  139    47     1  -0.820000      3.71359436      3.24692770     11.14078309
  140    47     2   0.410000      4.41359436      3.94692770     11.14078309
  141    47     2   0.410000      3.01359436      3.94692770     11.14078309
  142    48     1  -0.820000      3.71359436      3.24692770     13.61651266
  143    48     2   0.410000      4.41359436      3.94692770     13.61651266
  144    48     2   0.410000      3.01359436      3.94692770     13.61651266
  145    49     1  -0.820000      3.71359436      5.72265727      1.23786479
  146    49     2   0.410000      4.41359436      6.42265727      1.23786479
  147    49     2   0.410000      3.01359436      6.42265727      1.23786479
  148    50     1  -0.820000      3.71359436      5.72265727      3.71359436
  149    50     2   0.410000      4.41359436      6.42265727      3.71359436
  150    50     2   0.410000      3.01359436      6.42265727      3.71359436
  151    51     1  -0.820000      3.71359436      5.72265727      6.18932394
  152    51     2   0.410000      4.41359436      6.42265727      6.18932394
  153    51     2   0.410000      3.01359436      6.42265727      6.18932394
  154    52     1  -0.820000      3.71359436      5.72265727      8.66505351
  155    52     2   0.410000      4.41359436      6.42265727      8.66505351
  156    52     2   0.410000      3.01359436      6.42265727      8.66505351
  157    53     1  -0.820000      3.71359436      5.72265727     11.14078309
  158    53     2   0.410000      4.41359436      6.42265727     11.14078309
  159    53     2   0.410000      3.01359436      6.42265727     11.14078309
  160    54     1  -0.820000      3.71359436      5.72265727     13.61651266
  161    54     2   0.410000      4.41359436      6.42265727     13.61651266
  162    54     2   0.410000      3.01359436      6.42265727     13.61651266
  163    55     1  -0.820000      3.71359436      8.19838684      1.23786479
  164    55     2   0.410000      4.41359436      8.89838684      1.23786479
  165    55     2   0.410000      3.01359436      8.89838684      1.23786479
  166    56     1  -0.820000      3.71359436      8.19838684      3.71359436
  167    56     2   0.410000      4.41359436      8.89838684      3.71359436
  168    56     2   0.410000      3.01359436      8.89838684      3.71359436
  169    57     1  -0.820000      3.71359436      8.19838684      6.18932394
  170    57     2   0.410000      4.41359436      8.89838684      6.18932394
  171    57     2   0.410000      3.01359436      8.89838684      6.18932394
  172    58     1  -0.820000      3.71359436      8.19838684      8.66505351
  173    58     2   0.410000      4.41359436      8.89838684      8.66505351
  174    58     2   0.410000      3.01359436      8.89838684      8.66505351
  175    59     1  -0.820000      3.71359436      8.19838684     11.14078309
  176    59     2   0.410000      4.41359436      8.89838684     11.14078309
  177    59     2   0.410000      3.01359436      8.89838684     11.14078309
  178    60     1  -0.820000      3.71359436      8.19838684     13.61651266
  179    60     2   0.410000      4.41359436      8.89838684     13.61651266
  180    60     2   0.410000      3.01359436      8.89838684     13.61651266
  181    61     1  -0.820000      3.71359436     10.67411642      1.23786479
  182    61     2   0.410000      4.41359436     11.37411642      1.23786479
  183    61     2   0.410000      3.01359436     11.37411642      1.23786479
  184    62     1  -0.820000      3.71359436     10.67411642      3.71359436
  185    62     2   0.410000      4.41359436     11.37411642      3.71359436
  186    62     2   0.410000      3.01359436     11.37411642      3.71359436
  187    63     1  -0.820000      3.71359436     10.67411642      6.18932394
  188    63     2   0.410000      4.41359436     11.37411642      6.18932394
  189    63     2   0.410000      3.01359436     11.37411642      6.18932394
  190    64     1  -0.820000      3.71359436     10.67411642      8.66505351
  191    64     2   0.410000      4.41359436     11.37411642      8.66505351
  192    64     2   0.410000      3.01359436     11.37411642      8.66505351
  193    65     1  -0.820000      3.71359436     10.67411642     11.14078309
  194    65     2   0.410000      4.41359436     11.37411642     11.14078309
  195    65     2   0.410000      3.01359436     11.37411642     11.14078309
  196    66     1  -0.820000      3.71359436     10.67411642     13.61651266
  197    66     2   0.410000      4.41359436     11.37411642     13.61651266
  198    66     2   0.410000      3.01359436     11.37411642     13.61651266
  199    67     1  -0.820000      3.71359436     13.14984599      1.23786479
  200    67     2   0.410000      4.41359436     13.84984599      1.23786479
  201    67     2   0.410000      3.01359436     13.84984599      1.23786479
  202    68     1  -0.820000      3.71359436     13.14984599      3.71359436
  203    68     2   0.410000      4.41359436     13.84984599      3.71359436
  204    68     2   0.410000      3.01359436     13.84984599      3.71359436
  205    69     1  -0.820000      3.71359436     13.14984599      6.18932394
  206    69     2   0.410000      4.41359436     13.84984599      6.18932394
  207    69     2   0.410000      3.01359436     13.84984599      6.18932394
  208    70     1  -0.820000      3.71359436     13.14984599      8.66505351
  209    70     2   0.410000      4.41359436     13.84984599      8.66505351
  210    70     2   0.410000      3.01359436     13.84984599      8.66505351
  211    71     1  -0.820000      3.71359436     13.14984599     11.14078309
  212    71     2   0.410000      4.41359436     13.84984599     11.14078309
  213    71     2   0.410000      3.01359436     13.84984599     11.14078309
  214    72     1  -0.820000      3.71359436     13.14984599     13.61651266
  215    72     2   0.410000      4.41359436     13.84984599     13.61651266
  216    72     2   0.410000      3.01359436     13.84984599     13.61651266
  217    73     1  -0.820000      6.18932394      0.77119812      1.23786479
  218    73     2   0.410000      6.88932394      1.47119812      1.23786479
  219    73     2   0.410000      5.48932394      1.47119812      1.23786479
  220    74     1  -0.820000      6.18932394      0.77119812      3.71359436
  221    74     2   0.410000      6.88932394      1.47119812      3.71359436
  222    74     2   0.410000      5.48932394      1.47119812      3.71359436
  223    75     1  -0.820000      6.18932394      0.77119812      6.18932394
  224    75     2   0.410000      6.88932394      1.47119812      6.18932394
  225    75     2   0.410000      5.48932394      1.47119812      6.18932394
  226    76     1  -0.820000      6.18932394      0.77119812      8.66505351
  227    76     2   0.410000      6.88932394      1.47119812      8.66505351
  228    76     2   0.410000      5.48932394      1.47119812      8.66505351
  229    77     1  -0.820000      6.18932394      0.77119812     11.14078309
  230    77     2   0.410000      6.88932394      1.47119812     11.14078309
  231    77     2   0.410000      5.48932394      1.47119812     11.14078309
  232    78     1  -0.820000      6.18932394      0.77119812     13.61651266
  233    78     2   0.410000      6.88932394      1.47119812     13.61651266
  234    78     2   0.410000      5.48932394      1.47119812     13.61651266
  235    79     1  -0.820000      6.18932394      3.24692770      1.23786479
  236    79     2   0.410000      6.88932394      3.94692770      1.23786479
  237    79     2   0.410000      5.48932394      3.94692770      1.23786479
  238    80     1  -0.820000      6.18932394      3.24692770      3.71359436
  239    80     2   0.410000      6.88932394      3.94692770      3.71359436
  240    80     2   0.410000      5.48932394      3.94692770      3.71359436
  241    81     1  -0.820000      6.18932394      3.24692770      6.18932394
  242    81     2   0.410000      6.88932394      3.94692770      6.18932394
  243    81     2   0.410000      5.48932394      3.94692770      6.18932394
  244    82     1  -0.820000      6.18932394      3.24692770      8.66505351
  245    82     2   0.410000      6.88932394      3.94692770      8.66505351
  246    82     2   0.410000      5.48932394      3.94692770      8.66505351
  247    83     1  -0.820000      6.18932394      3.24692770     11.14078309
  248    83     2   0.410000      6.88932394      3.94692770     11.14078309
  249    83     2   0.410000      5.48932394      3.94692770     11.14078309
  250    84     1  -0.820000      6.18932394      3.24692770     13.61651266
  251    84     2   0.410000      6.88932394      3.94692770     13.61651266
  252    84     2   0.410000      5.48932394      3.94692770     13.61651266
  253    85     1  -0.820000      6.18932394      5.72265727      1.23786479
  254    85     2   0.410000      6.88932394      6.42265727      1.23786479
  255    85     2   0.410000      5.48932394      6.42265727      1.23786479
  256    86     1  -0.820000      6.18932394      5.72265727      3.71359436
  257    86     2   0.410000      6.88932394      6.42265727      3.71359436
  258    86     2   0.410000      5.48932394      6.42265727      3.71359436
  259    87     1  -0.820000      6.18932394      5.72265727      6.18932394
  260    87     2   0.410000      6.88932394      6.42265727      6.18932394
  261    87     2   0.410000      5.48932394      6.42265727      6.18932394
  262    88     1  -0.820000      6.18932394      5.72265727      8.66505351
  263    88     2   0.410000      6.88932394      6.42265727      8.66505351
  264    88     2   0.410000      5.48932394      6.42265727      8.66505351
  265    89     1  -0.820000      6.18932394      5.72265727     11.14078309
  266    89     2   0.410000      6.88932394      6.42265727     11.14078309
  267    89     2   0.410000      5.48932394      6.42265727     11.14078309
  268    90     1  -0.820000      6.18932394      5.72265727     13.61651266
  269    90     2   0.410000      6.88932394      6.42265727     13.61651266
  270    90     2   0.410000      5.48932394      6.42265727     13.61651266
  271    91     1  -0.820000      6.18932394      8.19838684      1.23786479
  272    91     2   0.410000      6.88932394      8.89838684      1.23786479
  273    91     2   0.410000      5.48932394      8.89838684      1.23786479
  274    92     1  -0.820000      6.18932394      8.19838684      3.71359436
  275    92     2   0.410000      6.88932394      8.89838684      3.71359436
  276    92     2   0.410000      5.48932394      8.89838684      3.71359436
  277    93     1  -0.820000      6.18932394      8.19838684      6.18932394
  278    93     2   0.410000      6.88932394      8.89838684      6.18932394
  279    93     2   0.410000      5.48932394      8.89838684      6.18932394
  280    94     1  -0.820000      6.18932394      8.19838684      8.66505351
  281    94     2   0.410000      6.88932394      8.89838684      8.66505351
  282    94     2   0.410000      5.48932394      8.89838684      8.66505351
  283    95     1  -0.820000      6.18932394      8.19838684     11.14078309
  284    95     2   0.410000      6.88932394      8.89838684     11.14078309
  285    95     2   0.410000      5.48932394      8.89838684     11.14078309
  286    96     1  -0.820000      6.18932394      8.19838684     13.61651266
  287    96     2   0.410000      6.88932394      8.89838684     13.61651266
  288    96     2   0.410000      5.48932394      8.89838684     13.61651266
  289    97     1  -0.820000      6.18932394     10.67411642      1.23786479
  290    97     2   0.410000      6.88932394     11.37411642      1.23786479
  291    97     2   0.410000      5.48932394     11.37411642      1.23786479
  292    98     1  -0.820000      6.18932394     10.67411642      3.71359436
  293    98     2   0.410000      6.88932394     11.37411642      3.71359436
  294    98     2   0.410000      5.48932394     11.37411642      3.71359436
  295    99     1  -0.820000      6.18932394     10.67411642      6.18932394
  296    99     2   0.410000      6.88932394     11.37411642      6.18932394
  297    99     2   0.410000      5.48932394     11.37411642      6.18932394
  298   100     1  -0.820000      6.18932394     10.67411642      8.66505351
  299   100     2   0.410000      6.88932394     11.37411642      8.66505351
  300   100     2   0.410000      5.48932394     11.37411642      8.66505351
  301   101     1  -0.820000      6.18932394     10.67411642     11.14078309
  302   101     2   0.410000      6.88932394     11.37411642     11.14078309
  303   101     2   0.410000      5.48932394     11.37411642     11.14078309
  304   102     1  -0.820000      6.18932394     10.67411642     13.61651266
  305   102     2   0.410000      6.88932394     11.37411642     13.61651266
  306   102     2   0.410000      5.48932394     11.37411642     13.61651266
  307   103     1  -0.820000      6.18932394     13.14984599      1.23786479
  308   103     2   0.410000      6.88932394     13.84984599      1.23786479
  309   103     2   0.410000      5.48932394     13.84984599      1.23786479
  310   104     1  -0.820000      6.18932394     13.14984599      3.71359436
  311   104     2   0.410000      6.88932394     13.84984599      3.71359436
  312   104     2   0.410000      5.48932394     13.84984599      3.71359436
  313   105     1  -0.820000      6.18932394     13.14984599      6.18932394
  314   105     2   0.410000      6.88932394     13.84984599      6.18932394
  315   105     2   0.410000      5.48932394     13.84984599      6.18932394
  316   106     1  -0.820000      6.18932394     13.14984599      8.66505351
  317   106     2   0.410000      6.88932394     13.84984599      8.66505351
  318   106     2   0.410000      5.48932394     13.84984599      8.66505351
  319   107     1  -0.820000      6.18932394     13.14984599     11.14078309
  320   107     2   0.410000      6.88932394     13.84984599     11.14078309
  321   107     2   0.410000      5.48932394     13.84984599     11.14078309
  322   108     1  -0.820000      6.18932394     13.14984599     13.61651266
  323   108     2   0.410000      6.88932394     13.84984599     13.61651266
  324   108     2   0.410000      5.48932394     13.84984599     13.61651266
  325   109     1  -0.820000      8.66505351      0.77119812      1.23786479
  326   109     2   0.410000      9.36505351      1.47119812      1.23786479
  327   109     2   0.410000      7.96505351      1.47119812      1.23786479
  328   110     1  -0.820000      8.66505351      0.77119812      3.71359436
  329   110     2   0.410000      9.36505351      1.47119812      3.71359436
  330   110     2   0.410000      7.96505351      1.47119812      3.71359436
  331   111     1  -0.820000      8.66505351      0.77119812      6.18932394
  332   111     2   0.410000      9.36505351      1.47119812      6.18932394
  333   111     2   0.410000      7.96505351      1.47119812      6.18932394
  334   112     1  -0.820000      8.66505351      0.77119812      8.66505351
  335   112     2   0.410000      9.36505351      1.47119812      8.66505351
  336   112     2   0.410000      7.96505351      1.47119812      8.66505351
  337   113     1  -0.820000      8.66505351      0.77119812     11.14078309
  338   113     2   0.410000      9.36505351      1.47119812     11.14078309
  339   113     2   0.410000      7.96505351      1.47119812     11.14078309
  340   114     1  -0.820000      8.66505351      0.77119812     13.61651266
  341   114     2   0.410000      9.36505351      1.47119812     13.61651266
  342   114     2   0.410000      7.96505351      1.47119812     13.61651266
  343   115     1  -0.820000      8.66505351      3.24692770      1.23786479
  344   115     2   0.410000      9.36505351      3.94692770      1.23786479
  345   115     2   0.410000      7.96505351      3.94692770      1.23786479
  346   116     1  -0.820000      8.66505351      3.24692770      3.71359436
  347   116     2   0.410000      9.36505351      3.94692770      3.71359436
  348   116     2   0.410000      7.96505351      3.94692770      3.71359436
  349   117     1  -0.820000      8.66505351      3.24692770      6.18932394
  350   117     2   0.410000      9.36505351      3.94692770      6.18932394
  351   117     2   0.410000      7.96505351      3.94692770      6.18932394
  352   118     1  -0.820000      8.66505351      3.24692770      8.66505351
  353   118     2   0.410000      9.36505351      3.94692770      8.66505351
  354   118     2   0.410000      7.96505351      3.94692770      8.66505351
  355   119     1  -0.820000      8.66505351      3.24692770     11.14078309
  356   119     2   0.410000      9.36505351      3.94692770     11.14078309
  357   119     2   0.410000      7.96505351      3.94692770     11.14078309
  358   120     1  -0.820000      8.66505351      3.24692770     13.61651266
  359   120     2   0.410000      9.36505351      3.94692770     13.61651266
  360   120     2   0.410000      7.96505351      3.94692770     13.61651266
  361   121     1  -0.820000      8.66505351      5.72265727      1.23786479
  362   121     2   0.410000      9.36505351      6.42265727      1.23786479
  363   121     2   0.410000      7.96505351      6.42265727      1.23786479
  364   122     1  -0.820000      8.66505351      5.72265727      3.71359436
  365   122     2   0.410000      9.36505351      6.42265727      3.71359436
  366   122     2   0.410000      7.96505351      6.42265727      3.71359436
  367   123     1  -0.820000      8.66505351      5.72265727      6.18932394
  368   123     2   0.410000      9.36505351      6.42265727      6.18932394
  369   123     2   0.410000      7.96505351      6.42265727      6.18932394
  370   124     1  -0.820000      8.66505351      5.72265727      8.66505351
  371   124     2   0.410000      9.36505351      6.42265727      8.66505351
  372   124     2   0.410000      7.96505351      6.42265727      8.66505351
  373   125     1  -0.820000      8.66505351      5.72265727     11.14078309
  374   125     2   0.410000      9.36505351      6.42265727     11.14078309
  375   125     2   0.410000      7.96505351      6.42265727     11.14078309
  376   126     1  -0.820000      8.66505351      5.72265727     13.61651266
  377   126     2   0.410000      9.36505351      6.42265727     13.61651266
  378   126     2   0.410000      7.96505351      6.42265727     13.61651266
  379   127     1  -0.820000      8.66505351      8.19838684      1.23786479
  380   127     2   0.410000      9.36505351      8.89838684      1.23786479
  381   127     2   0.410000      7.96505351      8.89838684      1.23786479
  382   128     1  -0.820000      8.66505351      8.19838684      3.71359436
  383   128     2   0.410000      9.36505351      8.89838684      3.71359436
  384   128     2   0.410000      7.96505351      8.89838684      3.71359436

 Bonds

    1     1     1     2
    2     1     1     3
    3     1     4     5